 argument  1 = mcscf_beh2.nw



============================== echo of input deck ==============================
echo
start mcscf_beh2_dat

geometry
  symmetry d2h
  be     0.00000000     0.00000000     0.00000000
  h      0.00000000     0.00000000     1.33749627
  h      0.00000000     0.00000000    -1.33749627
end

basis
  * library 6-31g*
end

task scf

mcscf
  active       17
  actelec      6
  multiplicity 1
end

task mcscf
================================================================================


                                         
                                         


              Northwest Computational Chemistry Package (NWChem) 6.8
              ------------------------------------------------------


                    Environmental Molecular Sciences Laboratory
                       Pacific Northwest National Laboratory
                                Richland, WA 99352

                              Copyright (c) 1994-2015
                       Pacific Northwest National Laboratory
                            Battelle Memorial Institute

             NWChem is an open-source computational chemistry package
                        distributed under the terms of the
                      Educational Community License (ECL) 2.0
             A copy of the license is included with this distribution
                              in the LICENSE.TXT file

                                  ACKNOWLEDGMENT
                                  --------------

            This software and its documentation were developed at the
            EMSL at Pacific Northwest National Laboratory, a multiprogram
            national laboratory, operated for the U.S. Department of Energy
            by Battelle under Contract Number DE-AC05-76RL01830. Support
            for this work was provided by the Department of Energy Office
            of Biological and Environmental Research, Office of Basic
            Energy Sciences, and the Office of Advanced Scientific Computing.


           Job information
           ---------------

    hostname        = erato
    program         = ../../../bin/LINUX64/nwchem
    date            = Sun May  6 23:31:53 2018

    compiled        = Sun_May_06_22:49:06_2018
    source          = /home/hvandam/nwchem-1-wfn1
    nwchem branch   = Development
    nwchem revision = nwchem_on_git-51-gcccac83fc2a4226c5c513281d68ab773edcb0a0d
    ga revision     = nwchem_on_git-43-g1da910a
    use scalapack   = F
    input           = mcscf_beh2.nw
    prefix          = mcscf_beh2_dat.
    data base       = ./mcscf_beh2_dat.db
    status          = startup
    nproc           =        1
    time left       =     -1s



           Memory information
           ------------------

    heap     =   13107198 doubles =    100.0 Mbytes
    stack    =   13107195 doubles =    100.0 Mbytes
    global   =   26214400 doubles =    200.0 Mbytes (distinct from heap & stack)
    total    =   52428793 doubles =    400.0 Mbytes
    verify   = yes
    hardfail = no 


           Directory information
           ---------------------

  0 permanent = .
  0 scratch   = .




                                NWChem Input Module
                                -------------------



 Scaling coordinates for geometry "geometry" by  1.889725989
 (inverse scale =  0.529177249)

 Turning off AUTOSYM since
 SYMMETRY directive was detected!


          ------
          auto-z
          ------
  autoz: insufficient variables                     2                    3
     1 autoz failed with cvr_scaling = 1.2 changing to 1.3
  autoz: insufficient variables                     2                    3
     2 autoz failed with cvr_scaling = 1.3 changing to 1.4
  autoz: insufficient variables                     2                    3
     3 autoz failed with cvr_scaling = 1.4 changing to 1.5
  autoz: insufficient variables                     2                    3
     4 autoz failed with cvr_scaling = 1.5 changing to 1.6
  autoz: insufficient variables                     2                    3
     5 autoz failed with cvr_scaling = 1.6 changing to 1.7
  autoz: insufficient variables                     2                    3

 AUTOZ failed to generate good internal coordinates.
 Cartesian coordinates will be used in optimizations.



                             Geometry "geometry" -> ""
                             -------------------------

 Output coordinates in angstroms (scale by  1.889725989 to convert to a.u.)

  No.       Tag          Charge          X              Y              Z
 ---- ---------------- ---------- -------------- -------------- --------------
    1 be                   4.0000     0.00000000     0.00000000     0.00000000
    2 h                    1.0000     0.00000000     0.00000000     1.33749627
    3 h                    1.0000     0.00000000     0.00000000    -1.33749627

      Atomic Mass 
      ----------- 

      be                 9.012180
      h                  1.007825


 Effective nuclear repulsion energy (a.u.)       3.3630049798

            Nuclear Dipole moment (a.u.) 
            ----------------------------
        X                 Y               Z
 ---------------- ---------------- ----------------
     0.0000000000     0.0000000000     0.0000000000

      Symmetry information
      --------------------

 Group name             D2h       
 Group number             26
 Group order               8
 No. of unique centers     2

      Symmetry unique atoms

     1    2


            XYZ format geometry
            -------------------
     3
 geometry
 be                    0.00000000     0.00000000     0.00000000
 h                     0.00000000     0.00000000     1.33749627
 h                     0.00000000     0.00000000    -1.33749627

 ==============================================================================
                                internuclear distances
 ------------------------------------------------------------------------------
       center one      |      center two      | atomic units |  angstroms
 ------------------------------------------------------------------------------
    2 h                |   1 be               |     2.52750  |     1.33750
    3 h                |   1 be               |     2.52750  |     1.33750
 ------------------------------------------------------------------------------
                         number of included internuclear distances:          2
 ==============================================================================



 ==============================================================================
                                 internuclear angles
 ------------------------------------------------------------------------------
        center 1       |       center 2       |       center 3       |  degrees
 ------------------------------------------------------------------------------
    2 h                |   1 be               |   3 h                |   180.00
 ------------------------------------------------------------------------------
                            number of included internuclear angles:          1
 ==============================================================================





 Summary of "ao basis" -> "" (cartesian)
 ------------------------------------------------------------------------------
       Tag                 Description            Shells   Functions and Types
 ---------------- ------------------------------  ------  ---------------------
 *                           6-31g*                   on all atoms 


                      Basis "ao basis" -> "ao basis" (cartesian)
                      -----
  be (Beryllium)
  --------------
            Exponent  Coefficients 
       -------------- ---------------------------------------------------------
  1 S  1.26458570E+03  0.001945
  1 S  1.89936810E+02  0.014835
  1 S  4.31590890E+01  0.072091
  1 S  1.20986630E+01  0.237154
  1 S  3.80632320E+00  0.469199
  1 S  1.27289030E+00  0.356520

  2 S  3.19646310E+00 -0.112649
  2 S  7.47813300E-01 -0.229506
  2 S  2.19966300E-01  1.186917

  3 P  3.19646310E+00  0.055980
  3 P  7.47813300E-01  0.261551
  3 P  2.19966300E-01  0.793972

  4 S  8.23099000E-02  1.000000

  5 P  8.23099000E-02  1.000000

  6 D  4.00000000E-01  1.000000

  h (Hydrogen)
  ------------
            Exponent  Coefficients 
       -------------- ---------------------------------------------------------
  1 S  1.87311370E+01  0.033495
  1 S  2.82539370E+00  0.234727
  1 S  6.40121700E-01  0.813757

  2 S  1.61277800E-01  1.000000



 Summary of "ao basis" -> "ao basis" (cartesian)
 ------------------------------------------------------------------------------
       Tag                 Description            Shells   Functions and Types
 ---------------- ------------------------------  ------  ---------------------
 be                          6-31g*                  6       15   3s2p1d
 h                           6-31g*                  2        2   2s


                                 NWChem SCF Module
                                 -----------------



  ao basis        = "ao basis"
  functions       =    19
  atoms           =     3
  closed shells   =     3
  open shells     =     0
  charge          =   0.00
  wavefunction    = RHF 
  input vectors   = atomic
  output vectors  = ./mcscf_beh2_dat.movecs
  use symmetry    = T
  symmetry adapt  = T


 Summary of "ao basis" -> "ao basis" (cartesian)
 ------------------------------------------------------------------------------
       Tag                 Description            Shells   Functions and Types
 ---------------- ------------------------------  ------  ---------------------
 be                          6-31g*                  6       15   3s2p1d
 h                           6-31g*                  2        2   2s


      Symmetry analysis of basis
      --------------------------

        ag          8
        au          0
        b1g         1
        b1u         4
        b2g         1
        b2u         2
        b3g         1
        b3u         2


 Forming initial guess at       0.4s


      Superposition of Atomic Density Guess
      -------------------------------------

 Sum of atomic energies:         -15.56322911

      Non-variational initial energy
      ------------------------------

 Total energy =     -15.617629
 1-e energy   =     -26.606648
 2-e energy   =       7.626014
 HOMO         =      -0.343579
 LUMO         =       0.058684


      Symmetry analysis of molecular orbitals - initial
      -------------------------------------------------


 !! scf_movecs_sym_adapt:    8 vectors were symmetry contaminated

  Symmetry fudging

 !! scf_movecs_sym_adapt:    6 vectors were symmetry contaminated

  Numbering of irreducible representations: 

     1 ag          2 au          3 b1g         4 b1u         5 b2g     
     6 b2u         7 b3g         8 b3u     

  Orbital symmetries:

     1 ag          2 ag          3 b1u         4 b3u         5 b2u     
     6 ag          7 b1u         8 ag          9 b2u        10 b3u     
    11 b1u        12 ag         13 b3g     


 Starting SCF solution at       0.6s



 ----------------------------------------------
         Quadratically convergent ROHF

 Convergence threshold     :          1.000E-04
 Maximum no. of iterations :           30
 Final Fock-matrix accuracy:          1.000E-07
 ----------------------------------------------


 #quartets = 1.009D+03 #integrals = 4.119D+03 #direct =  0.0% #cached =100.0%


 Integral file          = ./mcscf_beh2_dat.aoints.0
 Record size in doubles =    65536    No. of integs per rec  =    43688
 Max. records in memory =        2    Max. records in file   =  4242629
 No. of bits per label  =        8    No. of bits per value  =       64


              iter       energy          gnorm     gmax       time
             ----- ------------------- --------- --------- --------
                 1      -15.7507467465  2.98D-01  2.01D-01      0.1
                 2      -15.7658370814  2.85D-02  1.78D-02      0.1
                 3      -15.7659284048  3.21D-04  1.53D-04      0.1
                 4      -15.7659284180  1.61D-06  7.91D-07      0.1


       Final RHF  results 
       ------------------ 

         Total SCF energy =    -15.765928417989
      One-electron energy =    -27.051789734845
      Two-electron energy =      7.922856337038
 Nuclear repulsion energy =      3.363004979818

        Time for solution =      0.0s



       Symmetry analysis of molecular orbitals - final
       -----------------------------------------------

  Numbering of irreducible representations: 

     1 ag          2 au          3 b1g         4 b1u         5 b2g     
     6 b2u         7 b3g         8 b3u     

  Orbital symmetries:

     1 ag          2 ag          3 b1u         4 b2u         5 b3u     
     6 ag          7 b1u         8 ag          9 b2u        10 b3u     
    11 b1u        12 ag         13 b3g     

             Final eigenvalues
             -----------------

              1      
    1   -4.6726
    2   -0.4864
    3   -0.4441
    4    0.0908
    5    0.0908
    6    0.2044
    7    0.2924
    8    0.4388
    9    0.4735
   10    0.4735
   11    0.5844
   12    0.9527
   13    1.0385

                       ROHF Final Molecular Orbital Analysis
                       -------------------------------------

 Vector    2  Occ=2.000000D+00  E=-4.863501D-01  Symmetry=ag
              MO Center= -2.3D-19,  1.2D-21,  2.8D-17, r^2= 2.1D+00
   Bfn.  Coefficient  Atom+Function         Bfn.  Coefficient  Atom+Function  
  ----- ------------  ---------------      ----- ------------  ---------------
     6      0.249864  1 Be s                 17      0.242760  2 H  s          
    19      0.242760  3 H  s                  2      0.215321  1 Be s          
    16      0.197918  2 H  s                 18      0.197918  3 H  s          
     1     -0.181957  1 Be s          

 Vector    3  Occ=2.000000D+00  E=-4.440777D-01  Symmetry=b1u
              MO Center= -2.8D-21, -3.3D-21, -1.9D-16, r^2= 2.2D+00
   Bfn.  Coefficient  Atom+Function         Bfn.  Coefficient  Atom+Function  
  ----- ------------  ---------------      ----- ------------  ---------------
     5      0.386489  1 Be pz                16      0.230730  2 H  s          
    18     -0.230730  3 H  s                 17      0.217208  2 H  s          
    19     -0.217208  3 H  s          

 Vector    4  Occ=0.000000D+00  E= 9.084661D-02  Symmetry=b2u
              MO Center=  8.0D-42, -1.3D-21,  9.8D-42, r^2= 3.5D+00
   Bfn.  Coefficient  Atom+Function         Bfn.  Coefficient  Atom+Function  
  ----- ------------  ---------------      ----- ------------  ---------------
     8      0.828144  1 Be py                 4      0.234061  1 Be py         

 Vector    5  Occ=0.000000D+00  E= 9.084661D-02  Symmetry=b3u
              MO Center= -3.6D-18,  4.0D-34,  2.7D-34, r^2= 3.5D+00
   Bfn.  Coefficient  Atom+Function         Bfn.  Coefficient  Atom+Function  
  ----- ------------  ---------------      ----- ------------  ---------------
     7      0.828144  1 Be px                 3      0.234061  1 Be px         

 Vector    6  Occ=0.000000D+00  E= 2.043646D-01  Symmetry=ag
              MO Center=  4.1D-18,  1.2D-21,  0.0D+00, r^2= 3.9D+00
   Bfn.  Coefficient  Atom+Function         Bfn.  Coefficient  Atom+Function  
  ----- ------------  ---------------      ----- ------------  ---------------
     6      2.067921  1 Be s                 17     -1.024990  2 H  s          
    19     -1.024990  3 H  s                  2     -0.329244  1 Be s          

 Vector    7  Occ=0.000000D+00  E= 2.923703D-01  Symmetry=b1u
              MO Center= -7.2D-35,  2.9D-37, -9.4D-16, r^2= 6.3D+00
   Bfn.  Coefficient  Atom+Function         Bfn.  Coefficient  Atom+Function  
  ----- ------------  ---------------      ----- ------------  ---------------
     9      2.600040  1 Be pz                17     -1.411891  2 H  s          
    19      1.411891  3 H  s                  5     -0.430093  1 Be pz         

 Vector    8  Occ=0.000000D+00  E= 4.388464D-01  Symmetry=ag
              MO Center= -4.8D-19,  1.8D-36, -2.8D-17, r^2= 3.6D+00
   Bfn.  Coefficient  Atom+Function         Bfn.  Coefficient  Atom+Function  
  ----- ------------  ---------------      ----- ------------  ---------------
     2      2.038135  1 Be s                  6     -1.411122  1 Be s          
    17     -0.327849  2 H  s                 19     -0.327849  3 H  s          

 Vector    9  Occ=0.000000D+00  E= 4.735246D-01  Symmetry=b2u
              MO Center= -2.4D-41, -1.2D-21, -2.7D-41, r^2= 2.9D+00
   Bfn.  Coefficient  Atom+Function         Bfn.  Coefficient  Atom+Function  
  ----- ------------  ---------------      ----- ------------  ---------------
     4      1.325071  1 Be py                 8     -1.060555  1 Be py         

 Vector   10  Occ=0.000000D+00  E= 4.735246D-01  Symmetry=b3u
              MO Center=  2.2D-19,  3.7D-39, -8.8D-39, r^2= 2.9D+00
   Bfn.  Coefficient  Atom+Function         Bfn.  Coefficient  Atom+Function  
  ----- ------------  ---------------      ----- ------------  ---------------
     3      1.325071  1 Be px                 7     -1.060555  1 Be px         

 Vector   11  Occ=0.000000D+00  E= 5.844100D-01  Symmetry=b1u
              MO Center=  6.8D-19,  7.9D-19,  2.0D-15, r^2= 3.2D+00
   Bfn.  Coefficient  Atom+Function         Bfn.  Coefficient  Atom+Function  
  ----- ------------  ---------------      ----- ------------  ---------------
    17      2.014184  2 H  s                 19     -2.014184  3 H  s          
     9     -1.472101  1 Be pz                 5     -1.383082  1 Be pz         

 Vector   12  Occ=0.000000D+00  E= 9.527014D-01  Symmetry=ag
              MO Center= -1.5D-20,  9.8D-38, -5.6D-17, r^2= 3.1D+00
   Bfn.  Coefficient  Atom+Function         Bfn.  Coefficient  Atom+Function  
  ----- ------------  ---------------      ----- ------------  ---------------
     6      1.567504  1 Be s                 17     -1.315621  2 H  s          
    19     -1.315621  3 H  s                 15      0.714250  1 Be dzz        
    16      0.531703  2 H  s                 18      0.531703  3 H  s          
     2     -0.371900  1 Be s                 10     -0.342882  1 Be dxx        
    13     -0.342882  1 Be dyy        

 Vector   13  Occ=0.000000D+00  E= 1.038483D+00  Symmetry=b3g
              MO Center=  6.4D-52, -1.0D-18, -6.5D-38, r^2= 1.2D+00
   Bfn.  Coefficient  Atom+Function         Bfn.  Coefficient  Atom+Function  
  ----- ------------  ---------------      ----- ------------  ---------------
    14      1.732051  1 Be dyz        


 center of mass
 --------------
 x =   0.00000000 y =   0.00000000 z =   0.00000000

 moments of inertia (a.u.)
 ------------------
          12.876503597095           0.000000000000           0.000000000000
           0.000000000000          12.876503597095           0.000000000000
           0.000000000000           0.000000000000           0.000000000000

  Mulliken analysis of the total density
  --------------------------------------

    Atom       Charge   Shell Charges
 -----------   ------   -------------------------------------------------------
    1 Be   4     3.82   2.00  0.36  0.69  0.43  0.24  0.11
    2 H    1     1.09   0.48  0.61
    3 H    1     1.09   0.48  0.61

       Multipole analysis of the density wrt the origin
       ------------------------------------------------

     L   x y z        total         open         nuclear
     -   - - -        -----         ----         -------
     0   0 0 0     -0.000000      0.000000      6.000000

     1   1 0 0      0.000000      0.000000      0.000000
     1   0 1 0      0.000000      0.000000      0.000000
     1   0 0 1     -0.000000      0.000000      0.000000

     2   2 0 0     -4.821498      0.000000      0.000000
     2   1 1 0      0.000000      0.000000      0.000000
     2   1 0 1     -0.000000      0.000000      0.000000
     2   0 2 0     -4.821498      0.000000      0.000000
     2   0 1 1      0.000000      0.000000      0.000000
     2   0 0 2     -8.700583      0.000000     12.776527


 Parallel integral file used       1 records with       0 large values


 Task  times  cpu:        0.1s     wall:        0.4s


                                NWChem Input Module
                                -------------------



                            NWChem Direct MCSCF Module
                            --------------------------


     -----------------------------------
       Basis functions:             19
       Inactive shells:              0
       Active shells:               17
       Active electrons:             6
       Symmetry:                    ag      
       Multiplicity:                 1
       Orbital rotations:           34
     -----------------------------------

     -----------------------------------
       E2 extrapolation:             F
       Conjugacy:                    T
       Micro CI relax:               T
       Canonical orbitals:           T
       Maximum iterations:          20
       Converge threshold:    1.00E-04
       Conjugacy resets:            20
       Initial levelshift:        0.10
     -----------------------------------

   input molecular orbitals = ./mcscf_beh2_dat.movecs
  output molecular orbtials = ./mcscf_beh2_dat.movecs

       No. of determinants:        462400


  Starting Orbital Energies
    -4.672611    -0.486350     0.204365     0.438846     0.952701     1.070560
     1.070560    -0.444078     0.292370     0.584410     1.466834     1.038483
     0.090847     0.473525     1.038483     0.090847     0.473525     1.932568
     2.925341

  Orbital Symmetry Irreps
ag   ag   ag   ag   ag   ag   b1g  b1u  b1u  b1u  b1u  b2g  b2u  b2u  b3g 
b3u  b3u  ag   ag  
  !! warning: moints 2x:                     1  MO vectors were symmetry contaminated

 #quartets = 1.008D+03 #integrals = 4.118D+03 #direct =  0.0% #cached =100.0%


 Integral file          = ./mcscf_beh2_dat.aoints.0
 Record size in doubles =    65536    No. of integs per rec  =    43688
 Max. records in memory =        2    Max. records in file   =  4242629
 No. of bits per label  =        8    No. of bits per value  =       64




          %%%%% MacroIteration   1 %%%%%

 WARNING: detci_dvddiag0: Davidson diagonalization failed to converge in    100 iterations
 Approximate state energies:
   1    -19.17500629
   2    -11.78606882
 Ground state subspace expansion coefficients:
   1     -1.00000000
   2     -0.00000106

          Number of sigma calls:      100
                       o<<<<< (aa):             3.30
                       o<<<<< (bb):             5.11
                       o<<<<< (ab):            35.66
                       o<<<<< (total)          44.07
                       o<<<<< (aa) ff           0.00
                       o<<<<< (aa) gop          0.00
                       o<<<<< (aa) dot          0.00
                       o<<<<< (ab) str          0.00
                       o<<<<< (ab) gath         0.00
                       o<<<<< (ab) dotab        0.00
                       o<<<<< (ab) scat         0.00
                       o<<<<< (ab) sync         0.00
                       o<<<<< Density           2.25
                       o<<<<< Density one       0.08
                       o<<<<< Density two       0.99
                       o<<<<< Density ab        1.18
                       o<<<<< Spin adapt       26.37
                       o<<<<< Symm adapt        0.05

                       o<<<<< (ab) max sync:      0.00

           >>>| Valence CI:            -19.175006294461
           >>>| MCSCF energy:          -15.812001314645
           >>>| Gradient norm:          0.467847358D-01
     --- Warning:    8 Hessian diagonals < 0.05 ---

                              ----- Line search ------

        step       energy         lsg     num-lsg   num-lsh   lsrat    time
      ------- ---------------- --------- --------- --------- ------- --------
       0.0000     -15.81200131 -7.79D-03  0.00D+00  0.00D+00 0.0D+00     79.9
  !! warning: moints 2x:                     1  MO vectors were symmetry contaminated
 WARNING: detci_dvddiag0: Davidson diagonalization failed to converge in    100 iterations
 Approximate state energies:
   1    -19.17988061
   2    -11.22269239
 Ground state subspace expansion coefficients:
   1     -1.00000000
   2     -0.00000006

          Number of sigma calls:      100
                       o<<<<< (aa):             3.37
                       o<<<<< (bb):             5.28
                       o<<<<< (ab):            35.88
                       o<<<<< (total)          44.52
                       o<<<<< (aa) ff           0.00
                       o<<<<< (aa) gop          0.00
                       o<<<<< (aa) dot          0.00
                       o<<<<< (ab) str          0.00
                       o<<<<< (ab) gath         0.00
                       o<<<<< (ab) dotab        0.00
                       o<<<<< (ab) scat         0.00
                       o<<<<< (ab) sync         0.00
                       o<<<<< Density           2.25
                       o<<<<< Density one       0.08
                       o<<<<< Density two       0.99
                       o<<<<< Density ab        1.18
                       o<<<<< Spin adapt       26.71
                       o<<<<< Symm adapt        0.06

                       o<<<<< (ab) max sync:      0.00
       1.0000     -15.81687563 -1.24D-03 -1.60D-03  6.55D-03 1.6D-01    160.4
 WARNING: detci_dvddiag0: Davidson diagonalization failed to converge in    100 iterations
 Approximate state energies:
   1    -19.17998662
   2    -12.81587953
 Ground state subspace expansion coefficients:
   1     -1.00000000
   2     -0.00000003

          Number of sigma calls:      100
                       o<<<<< (aa):             3.36
                       o<<<<< (bb):             5.26
                       o<<<<< (ab):            35.97
                       o<<<<< (total)          44.59
                       o<<<<< (aa) ff           0.00
                       o<<<<< (aa) gop          0.00
                       o<<<<< (aa) dot          0.00
                       o<<<<< (ab) str          0.00
                       o<<<<< (ab) gath         0.00
                       o<<<<< (ab) dotab        0.00
                       o<<<<< (ab) scat         0.00
                       o<<<<< (ab) sync         0.00
                       o<<<<< Density           2.24
                       o<<<<< Density one       0.08
                       o<<<<< Density two       0.98
                       o<<<<< Density ab        1.17
                       o<<<<< Spin adapt       26.53
                       o<<<<< Symm adapt        0.06

                       o<<<<< (ab) max sync:      0.00
       1.1887     -15.81698164  8.73D-05  9.96D-05  7.01D-03 1.1D-02    240.9
     --- Orbitals canonicalized ---



          %%%%% MacroIteration   2 %%%%%


          Number of sigma calls:       75
                       o<<<<< (aa):             2.54
                       o<<<<< (bb):             3.95
                       o<<<<< (ab):            26.94
                       o<<<<< (total)          33.43
                       o<<<<< (aa) ff           0.00
                       o<<<<< (aa) gop          0.00
                       o<<<<< (aa) dot          0.00
                       o<<<<< (ab) str          0.00
                       o<<<<< (ab) gath         0.00
                       o<<<<< (ab) dotab        0.00
                       o<<<<< (ab) scat         0.00
                       o<<<<< (ab) sync         0.00
                       o<<<<< Density           2.24
                       o<<<<< Density one       0.08
                       o<<<<< Density two       0.98
                       o<<<<< Density ab        1.17
                       o<<<<< Spin adapt       19.40
                       o<<<<< Symm adapt        0.04

                       o<<<<< (ab) max sync:      0.00

           >>>| Valence CI:            -19.179986616873
           >>>| MCSCF energy:          -15.816981637057
           >>>| Gradient norm:          0.111173727D-01
     --- Warning:   12 Hessian diagonals < 0.05 ---
     --- Conjugacy reset ---

                              ----- Line search ------

        step       energy         lsg     num-lsg   num-lsh   lsrat    time
      ------- ---------------- --------- --------- --------- ------- --------
       0.0000     -15.81698164 -1.41D-04  0.00D+00  0.00D+00 0.0D+00    301.2

          Number of sigma calls:       51
                       o<<<<< (aa):             1.71
                       o<<<<< (bb):             2.68
                       o<<<<< (ab):            18.33
                       o<<<<< (total)          22.71
                       o<<<<< (aa) ff           0.00
                       o<<<<< (aa) gop          0.00
                       o<<<<< (aa) dot          0.00
                       o<<<<< (ab) str          0.00
                       o<<<<< (ab) gath         0.00
                       o<<<<< (ab) dotab        0.00
                       o<<<<< (ab) scat         0.00
                       o<<<<< (ab) sync         0.00
                       o<<<<< Density           2.24
                       o<<<<< Density one       0.08
                       o<<<<< Density two       0.98
                       o<<<<< Density ab        1.17
                       o<<<<< Spin adapt       13.41
                       o<<<<< Symm adapt        0.04

                       o<<<<< (ab) max sync:      0.00
       1.0000     -15.81709334 -8.27D-05 -8.28D-05  5.79D-05 5.9D-01    343.1
  !! warning: moints 2x:                     1  MO vectors were symmetry contaminated

          Number of sigma calls:       53
                       o<<<<< (aa):             1.78
                       o<<<<< (bb):             2.77
                       o<<<<< (ab):            18.98
                       o<<<<< (total)          23.54
                       o<<<<< (aa) ff           0.00
                       o<<<<< (aa) gop          0.00
                       o<<<<< (aa) dot          0.00
                       o<<<<< (ab) str          0.00
                       o<<<<< (ab) gath         0.00
                       o<<<<< (ab) dotab        0.00
                       o<<<<< (ab) scat         0.00
                       o<<<<< (ab) sync         0.00
                       o<<<<< Density           2.26
                       o<<<<< Density one       0.09
                       o<<<<< Density two       0.98
                       o<<<<< Density ab        1.18
                       o<<<<< Spin adapt       13.90
                       o<<<<< Symm adapt        0.03

                       o<<<<< (ab) max sync:      0.00
       2.4299     -15.81715259 -5.47D-07 -3.44D-07  5.75D-05 3.9D-03    386.5



          %%%%% MacroIteration   3 %%%%%


          Number of sigma calls:        1
                       o<<<<< (aa):             0.03
                       o<<<<< (bb):             0.06
                       o<<<<< (ab):             0.36
                       o<<<<< (total)           0.45
                       o<<<<< (aa) ff           0.00
                       o<<<<< (aa) gop          0.00
                       o<<<<< (aa) dot          0.00
                       o<<<<< (ab) str          0.00
                       o<<<<< (ab) gath         0.00
                       o<<<<< (ab) dotab        0.00
                       o<<<<< (ab) scat         0.00
                       o<<<<< (ab) sync         0.00
                       o<<<<< Density           2.28
                       o<<<<< Density one       0.09
                       o<<<<< Density two       0.99
                       o<<<<< Density ab        1.19
                       o<<<<< Spin adapt        0.00
                       o<<<<< Symm adapt        0.00

                       o<<<<< (ab) max sync:      0.00

           >>>| Valence CI:            -19.180157569478
           >>>| MCSCF energy:          -15.817152589663
           >>>| Gradient norm:          0.127194503D-01
     --- Warning:   12 Hessian diagonals < 0.05 ---

                              ----- Line search ------

        step       energy         lsg     num-lsg   num-lsh   lsrat    time
      ------- ---------------- --------- --------- --------- ------- --------
       0.0000     -15.81715259 -9.93D-05  0.00D+00  0.00D+00 0.0D+00    389.3

          Number of sigma calls:       52
                       o<<<<< (aa):             1.78
                       o<<<<< (bb):             2.75
                       o<<<<< (ab):            18.68
                       o<<<<< (total)          23.21
                       o<<<<< (aa) ff           0.00
                       o<<<<< (aa) gop          0.00
                       o<<<<< (aa) dot          0.00
                       o<<<<< (ab) str          0.00
                       o<<<<< (ab) gath         0.00
                       o<<<<< (ab) dotab        0.00
                       o<<<<< (ab) scat         0.00
                       o<<<<< (ab) sync         0.00
                       o<<<<< Density           2.24
                       o<<<<< Density one       0.07
                       o<<<<< Density two       0.98
                       o<<<<< Density ab        1.18
                       o<<<<< Spin adapt       13.80
                       o<<<<< Symm adapt        0.03

                       o<<<<< (ab) max sync:      0.00
       1.0000     -15.81723857 -7.28D-05 -7.27D-05  2.65D-05 7.3D-01    432.2
  !! warning: moints 2x:                     1  MO vectors were symmetry contaminated

          Number of sigma calls:       56
                       o<<<<< (aa):             1.90
                       o<<<<< (bb):             2.95
                       o<<<<< (ab):            20.14
                       o<<<<< (total)          24.99
                       o<<<<< (aa) ff           0.00
                       o<<<<< (aa) gop          0.00
                       o<<<<< (aa) dot          0.00
                       o<<<<< (ab) str          0.00
                       o<<<<< (ab) gath         0.00
                       o<<<<< (ab) dotab        0.00
                       o<<<<< (ab) scat         0.00
                       o<<<<< (ab) sync         0.00
                       o<<<<< Density           2.26
                       o<<<<< Density one       0.08
                       o<<<<< Density two       0.99
                       o<<<<< Density ab        1.18
                       o<<<<< Spin adapt       14.85
                       o<<<<< Symm adapt        0.03

                       o<<<<< (ab) max sync:      0.00
       3.7406     -15.81734276 -4.54D-06 -3.91D-06  2.49D-05 4.6D-02    478.2



          %%%%% MacroIteration   4 %%%%%


          Number of sigma calls:        1
                       o<<<<< (aa):             0.03
                       o<<<<< (bb):             0.05
                       o<<<<< (ab):             0.36
                       o<<<<< (total)           0.44
                       o<<<<< (aa) ff           0.00
                       o<<<<< (aa) gop          0.00
                       o<<<<< (aa) dot          0.00
                       o<<<<< (ab) str          0.00
                       o<<<<< (ab) gath         0.00
                       o<<<<< (ab) dotab        0.00
                       o<<<<< (ab) scat         0.00
                       o<<<<< (ab) sync         0.00
                       o<<<<< Density           2.25
                       o<<<<< Density one       0.08
                       o<<<<< Density two       0.98
                       o<<<<< Density ab        1.18
                       o<<<<< Spin adapt        0.00
                       o<<<<< Symm adapt        0.00

                       o<<<<< (ab) max sync:      0.00

           >>>| Valence CI:            -19.180347743514
           >>>| MCSCF energy:          -15.817342763698
           >>>| Gradient norm:          0.271003008D-01
     --- Warning:   12 Hessian diagonals < 0.05 ---

                              ----- Line search ------

        step       energy         lsg     num-lsg   num-lsh   lsrat    time
      ------- ---------------- --------- --------- --------- ------- --------
       0.0000     -15.81734276 -2.74D-04  0.00D+00  0.00D+00 0.0D+00    480.9
  !! warning: moints 2x:                     1  MO vectors were symmetry contaminated

          Number of sigma calls:       49
                       o<<<<< (aa):             1.67
                       o<<<<< (bb):             2.59
                       o<<<<< (ab):            17.62
                       o<<<<< (total)          21.89
                       o<<<<< (aa) ff           0.00
                       o<<<<< (aa) gop          0.00
                       o<<<<< (aa) dot          0.00
                       o<<<<< (ab) str          0.00
                       o<<<<< (ab) gath         0.00
                       o<<<<< (ab) dotab        0.00
                       o<<<<< (ab) scat         0.00
                       o<<<<< (ab) sync         0.00
                       o<<<<< Density           2.26
                       o<<<<< Density one       0.07
                       o<<<<< Density two       0.98
                       o<<<<< Density ab        1.19
                       o<<<<< Spin adapt       13.03
                       o<<<<< Symm adapt        0.03

                       o<<<<< (ab) max sync:      0.00
       1.0000     -15.81765985 -3.57D-04 -3.59D-04 -8.30D-05 1.3D+00    521.5
                     Negative curvature: hessian=-8.30D-05
  !! warning: moints 2x:                     1  MO vectors were symmetry contaminated

          Number of sigma calls:       46
                       o<<<<< (aa):             1.55
                       o<<<<< (bb):             2.43
                       o<<<<< (ab):            16.55
                       o<<<<< (total)          20.52
                       o<<<<< (aa) ff           0.00
                       o<<<<< (aa) gop          0.00
                       o<<<<< (aa) dot          0.00
                       o<<<<< (ab) str          0.00
                       o<<<<< (ab) gath         0.00
                       o<<<<< (ab) dotab        0.00
                       o<<<<< (ab) scat         0.00
                       o<<<<< (ab) sync         0.00
                       o<<<<< Density           2.27
                       o<<<<< Density one       0.08
                       o<<<<< Density two       0.99
                       o<<<<< Density ab        1.19
                       o<<<<< Spin adapt       12.14
                       o<<<<< Symm adapt        0.03

                       o<<<<< (ab) max sync:      0.00
       1.5010     -15.81784595 -3.83D-04 -3.84D-04 -5.07D-05 1.4D+00    559.7
                     Negative curvature: hessian=-5.07D-05
  !! warning: moints 2x:                     1  MO vectors were symmetry contaminated

          Number of sigma calls:       49
                       o<<<<< (aa):             1.65
                       o<<<<< (bb):             2.56
                       o<<<<< (ab):            17.57
                       o<<<<< (total)          21.78
                       o<<<<< (aa) ff           0.00
                       o<<<<< (aa) gop          0.00
                       o<<<<< (aa) dot          0.00
                       o<<<<< (ab) str          0.00
                       o<<<<< (ab) gath         0.00
                       o<<<<< (ab) dotab        0.00
                       o<<<<< (ab) scat         0.00
                       o<<<<< (ab) sync         0.00
                       o<<<<< Density           2.26
                       o<<<<< Density one       0.08
                       o<<<<< Density two       0.98
                       o<<<<< Density ab        1.19
                       o<<<<< Spin adapt       12.84
                       o<<<<< Symm adapt        0.03

                       o<<<<< (ab) max sync:      0.00
       2.5030     -15.81822685 -3.58D-04 -3.68D-04  2.41D-05 1.3D+00    600.0
  restricting step size    14.886945949569455     

          Number of sigma calls:       49
                       o<<<<< (aa):             1.65
                       o<<<<< (bb):             2.57
                       o<<<<< (ab):            17.61
                       o<<<<< (total)          21.83
                       o<<<<< (aa) ff           0.00
                       o<<<<< (aa) gop          0.00
                       o<<<<< (aa) dot          0.00
                       o<<<<< (ab) str          0.00
                       o<<<<< (ab) gath         0.00
                       o<<<<< (ab) dotab        0.00
                       o<<<<< (ab) scat         0.00
                       o<<<<< (ab) sync         0.00
                       o<<<<< Density           2.24
                       o<<<<< Density one       0.08
                       o<<<<< Density two       0.97
                       o<<<<< Density ab        1.18
                       o<<<<< Spin adapt       12.89
                       o<<<<< Symm adapt        0.03

                       o<<<<< (ab) max sync:      0.00
       3.7545     -15.81857116 -1.63D-04 -1.77D-04  1.56D-04 6.0D-01    640.3
  !! warning: moints 2x:                     1  MO vectors were symmetry contaminated

          Number of sigma calls:       49
                       o<<<<< (aa):             1.64
                       o<<<<< (bb):             2.57
                       o<<<<< (ab):            17.56
                       o<<<<< (total)          21.77
                       o<<<<< (aa) ff           0.00
                       o<<<<< (aa) gop          0.00
                       o<<<<< (aa) dot          0.00
                       o<<<<< (ab) str          0.00
                       o<<<<< (ab) gath         0.00
                       o<<<<< (ab) dotab        0.00
                       o<<<<< (ab) scat         0.00
                       o<<<<< (ab) sync         0.00
                       o<<<<< Density           2.25
                       o<<<<< Density one       0.08
                       o<<<<< Density two       0.98
                       o<<<<< Density ab        1.18
                       o<<<<< Spin adapt       12.87
                       o<<<<< Symm adapt        0.03

                       o<<<<< (ab) max sync:      0.00
       4.8004     -15.81860971  9.81D-05  9.38D-05  2.50D-04 3.6D-01    680.6
  !! warning: moints 2x:                     1  MO vectors were symmetry contaminated

          Number of sigma calls:       44
                       o<<<<< (aa):             1.48
                       o<<<<< (bb):             2.30
                       o<<<<< (ab):            15.75
                       o<<<<< (total)          19.53
                       o<<<<< (aa) ff           0.00
                       o<<<<< (aa) gop          0.00
                       o<<<<< (aa) dot          0.00
                       o<<<<< (ab) str          0.00
                       o<<<<< (ab) gath         0.00
                       o<<<<< (ab) dotab        0.00
                       o<<<<< (ab) scat         0.00
                       o<<<<< (ab) sync         0.00
                       o<<<<< Density           2.27
                       o<<<<< Density one       0.08
                       o<<<<< Density two       0.99
                       o<<<<< Density ab        1.19
                       o<<<<< Spin adapt       11.47
                       o<<<<< Symm adapt        0.04

                       o<<<<< (ab) max sync:      0.00
       4.4079     -15.81862772 -5.65D-06 -5.97D-06  2.64D-04 2.1D-02    717.0



          %%%%% MacroIteration   5 %%%%%


          Number of sigma calls:        1
                       o<<<<< (aa):             0.03
                       o<<<<< (bb):             0.05
                       o<<<<< (ab):             0.36
                       o<<<<< (total)           0.45
                       o<<<<< (aa) ff           0.00
                       o<<<<< (aa) gop          0.00
                       o<<<<< (aa) dot          0.00
                       o<<<<< (ab) str          0.00
                       o<<<<< (ab) gath         0.00
                       o<<<<< (ab) dotab        0.00
                       o<<<<< (ab) scat         0.00
                       o<<<<< (ab) sync         0.00
                       o<<<<< Density           2.25
                       o<<<<< Density one       0.08
                       o<<<<< Density two       0.99
                       o<<<<< Density ab        1.18
                       o<<<<< Spin adapt        0.00
                       o<<<<< Symm adapt        0.00

                       o<<<<< (ab) max sync:      0.00

           >>>| Valence CI:            -19.181632702234
           >>>| MCSCF energy:          -15.818627722419
           >>>| Gradient norm:          0.522431921D-01
     --- Warning:   14 Hessian diagonals < 0.05 ---

                              ----- Line search ------

        step       energy         lsg     num-lsg   num-lsh   lsrat    time
      ------- ---------------- --------- --------- --------- ------- --------
       0.0000     -15.81862772 -8.09D-04  0.00D+00  0.00D+00 0.0D+00    719.7
  !! warning: moints 2x:                     2  MO vectors were symmetry contaminated

          Number of sigma calls:       59
                       o<<<<< (aa):             1.97
                       o<<<<< (bb):             3.08
                       o<<<<< (ab):            21.15
                       o<<<<< (total)          26.21
                       o<<<<< (aa) ff           0.00
                       o<<<<< (aa) gop          0.00
                       o<<<<< (aa) dot          0.00
                       o<<<<< (ab) str          0.00
                       o<<<<< (ab) gath         0.00
                       o<<<<< (ab) dotab        0.00
                       o<<<<< (ab) scat         0.00
                       o<<<<< (ab) sync         0.00
                       o<<<<< Density           2.26
                       o<<<<< Density one       0.08
                       o<<<<< Density two       0.99
                       o<<<<< Density ab        1.19
                       o<<<<< Spin adapt       15.56
                       o<<<<< Symm adapt        0.04

                       o<<<<< (ab) max sync:      0.00
       1.0000     -15.81893499  1.89D-04  1.92D-04  9.98D-04 2.3D-01    767.9
  !! warning: moints 2x:                     1  MO vectors were symmetry contaminated

          Number of sigma calls:       51
                       o<<<<< (aa):             1.71
                       o<<<<< (bb):             2.69
                       o<<<<< (ab):            18.33
                       o<<<<< (total)          22.73
                       o<<<<< (aa) ff           0.00
                       o<<<<< (aa) gop          0.00
                       o<<<<< (aa) dot          0.00
                       o<<<<< (ab) str          0.00
                       o<<<<< (ab) gath         0.00
                       o<<<<< (ab) dotab        0.00
                       o<<<<< (ab) scat         0.00
                       o<<<<< (ab) sync         0.00
                       o<<<<< Density           2.26
                       o<<<<< Density one       0.08
                       o<<<<< Density two       0.98
                       o<<<<< Density ab        1.19
                       o<<<<< Spin adapt       13.37
                       o<<<<< Symm adapt        0.03

                       o<<<<< (ab) max sync:      0.00
       0.8104     -15.81895364  6.27D-06  6.95D-06  9.65D-04 7.8D-03    809.8



          %%%%% MacroIteration   6 %%%%%


          Number of sigma calls:        1
                       o<<<<< (aa):             0.03
                       o<<<<< (bb):             0.05
                       o<<<<< (ab):             0.36
                       o<<<<< (total)           0.44
                       o<<<<< (aa) ff           0.00
                       o<<<<< (aa) gop          0.00
                       o<<<<< (aa) dot          0.00
                       o<<<<< (ab) str          0.00
                       o<<<<< (ab) gath         0.00
                       o<<<<< (ab) dotab        0.00
                       o<<<<< (ab) scat         0.00
                       o<<<<< (ab) sync         0.00
                       o<<<<< Density           2.24
                       o<<<<< Density one       0.08
                       o<<<<< Density two       0.97
                       o<<<<< Density ab        1.18
                       o<<<<< Spin adapt        0.00
                       o<<<<< Symm adapt        0.00

                       o<<<<< (ab) max sync:      0.00

           >>>| Valence CI:            -19.181958617735
           >>>| MCSCF energy:          -15.818953637919
           >>>| Gradient norm:          0.244019331D-01
     --- Warning:   14 Hessian diagonals < 0.05 ---

                              ----- Line search ------

        step       energy         lsg     num-lsg   num-lsh   lsrat    time
      ------- ---------------- --------- --------- --------- ------- --------
       0.0000     -15.81895364 -3.50D-04  0.00D+00  0.00D+00 0.0D+00    812.6
  !! warning: moints 2x:                     3  MO vectors were symmetry contaminated

          Number of sigma calls:       56
                       o<<<<< (aa):             1.90
                       o<<<<< (bb):             2.95
                       o<<<<< (ab):            20.13
                       o<<<<< (total)          24.97
                       o<<<<< (aa) ff           0.00
                       o<<<<< (aa) gop          0.00
                       o<<<<< (aa) dot          0.00
                       o<<<<< (ab) str          0.00
                       o<<<<< (ab) gath         0.00
                       o<<<<< (ab) dotab        0.00
                       o<<<<< (ab) scat         0.00
                       o<<<<< (ab) sync         0.00
                       o<<<<< Density           2.28
                       o<<<<< Density one       0.08
                       o<<<<< Density two       1.00
                       o<<<<< Density ab        1.19
                       o<<<<< Spin adapt       14.76
                       o<<<<< Symm adapt        0.04

                       o<<<<< (ab) max sync:      0.00
       1.0000     -15.81920465 -1.50D-04 -1.51D-04  1.99D-04 4.3D-01    858.5
  !! warning: moints 2x:                     1  MO vectors were symmetry contaminated

          Number of sigma calls:       53
                       o<<<<< (aa):             1.79
                       o<<<<< (bb):             2.81
                       o<<<<< (ab):            19.07
                       o<<<<< (total)          23.67
                       o<<<<< (aa) ff           0.00
                       o<<<<< (aa) gop          0.00
                       o<<<<< (aa) dot          0.00
                       o<<<<< (ab) str          0.00
                       o<<<<< (ab) gath         0.00
                       o<<<<< (ab) dotab        0.00
                       o<<<<< (ab) scat         0.00
                       o<<<<< (ab) sync         0.00
                       o<<<<< Density           2.24
                       o<<<<< Density one       0.08
                       o<<<<< Density two       0.97
                       o<<<<< Density ab        1.17
                       o<<<<< Spin adapt       14.06
                       o<<<<< Symm adapt        0.03

                       o<<<<< (ab) max sync:      0.00
       1.7552     -15.81925919  6.56D-06  6.25D-06  2.08D-04 1.9D-02    902.1



          %%%%% MacroIteration   7 %%%%%


          Number of sigma calls:        1
                       o<<<<< (aa):             0.03
                       o<<<<< (bb):             0.05
                       o<<<<< (ab):             0.35
                       o<<<<< (total)           0.43
                       o<<<<< (aa) ff           0.00
                       o<<<<< (aa) gop          0.00
                       o<<<<< (aa) dot          0.00
                       o<<<<< (ab) str          0.00
                       o<<<<< (ab) gath         0.00
                       o<<<<< (ab) dotab        0.00
                       o<<<<< (ab) scat         0.00
                       o<<<<< (ab) sync         0.00
                       o<<<<< Density           2.22
                       o<<<<< Density one       0.07
                       o<<<<< Density two       0.97
                       o<<<<< Density ab        1.17
                       o<<<<< Spin adapt        0.00
                       o<<<<< Symm adapt        0.00

                       o<<<<< (ab) max sync:      0.00

           >>>| Valence CI:            -19.182264173681
           >>>| MCSCF energy:          -15.819259193866
           >>>| Gradient norm:          0.504691522D-02
     --- Warning:   16 Hessian diagonals < 0.05 ---

                              ----- Line search ------

        step       energy         lsg     num-lsg   num-lsh   lsrat    time
      ------- ---------------- --------- --------- --------- ------- --------
       0.0000     -15.81925919 -4.28D-05  0.00D+00  0.00D+00 0.0D+00    904.8

          Number of sigma calls:       50
                       o<<<<< (aa):             1.62
                       o<<<<< (bb):             2.45
                       o<<<<< (ab):            17.72
                       o<<<<< (total)          21.79
                       o<<<<< (aa) ff           0.00
                       o<<<<< (aa) gop          0.00
                       o<<<<< (aa) dot          0.00
                       o<<<<< (ab) str          0.00
                       o<<<<< (ab) gath         0.00
                       o<<<<< (ab) dotab        0.00
                       o<<<<< (ab) scat         0.00
                       o<<<<< (ab) sync         0.00
                       o<<<<< Density           2.23
                       o<<<<< Density one       0.08
                       o<<<<< Density two       0.97
                       o<<<<< Density ab        1.17
                       o<<<<< Spin adapt       13.03
                       o<<<<< Symm adapt        0.04

                       o<<<<< (ab) max sync:      0.00
       1.0000     -15.81928403 -6.80D-06 -6.84D-06  3.60D-05 1.6D-01    945.4
  !! warning: moints 2x:                     1  MO vectors were symmetry contaminated

          Number of sigma calls:       42
                       o<<<<< (aa):             1.38
                       o<<<<< (bb):             2.11
                       o<<<<< (ab):            14.95
                       o<<<<< (total)          18.44
                       o<<<<< (aa) ff           0.00
                       o<<<<< (aa) gop          0.00
                       o<<<<< (aa) dot          0.00
                       o<<<<< (ab) str          0.00
                       o<<<<< (ab) gath         0.00
                       o<<<<< (ab) dotab        0.00
                       o<<<<< (ab) scat         0.00
                       o<<<<< (ab) sync         0.00
                       o<<<<< Density           2.25
                       o<<<<< Density one       0.08
                       o<<<<< Density two       0.98
                       o<<<<< Density ab        1.18
                       o<<<<< Spin adapt       10.92
                       o<<<<< Symm adapt        0.03

                       o<<<<< (ab) max sync:      0.00
       1.1888     -15.81928467  3.94D-08  3.92D-08  3.62D-05 9.2D-04    979.9



          %%%%% MacroIteration   8 %%%%%


          Number of sigma calls:        1
                       o<<<<< (aa):             0.03
                       o<<<<< (bb):             0.05
                       o<<<<< (ab):             0.36
                       o<<<<< (total)           0.44
                       o<<<<< (aa) ff           0.00
                       o<<<<< (aa) gop          0.00
                       o<<<<< (aa) dot          0.00
                       o<<<<< (ab) str          0.00
                       o<<<<< (ab) gath         0.00
                       o<<<<< (ab) dotab        0.00
                       o<<<<< (ab) scat         0.00
                       o<<<<< (ab) sync         0.00
                       o<<<<< Density           2.23
                       o<<<<< Density one       0.08
                       o<<<<< Density two       0.98
                       o<<<<< Density ab        1.17
                       o<<<<< Spin adapt        0.00
                       o<<<<< Symm adapt        0.00

                       o<<<<< (ab) max sync:      0.00

           >>>| Valence CI:            -19.182289652418
           >>>| MCSCF energy:          -15.819284672602
           >>>| Gradient norm:          0.106056849D-02
     --- Warning:   16 Hessian diagonals < 0.05 ---

                              ----- Line search ------

        step       energy         lsg     num-lsg   num-lsh   lsrat    time
      ------- ---------------- --------- --------- --------- ------- --------
       0.0000     -15.81928467 -9.93D-07  0.00D+00  0.00D+00 0.0D+00    982.6
  !! warning: moints 2x:                     1  MO vectors were symmetry contaminated

          Number of sigma calls:       44
                       o<<<<< (aa):             1.47
                       o<<<<< (bb):             2.29
                       o<<<<< (ab):            15.72
                       o<<<<< (total)          19.48
                       o<<<<< (aa) ff           0.00
                       o<<<<< (aa) gop          0.00
                       o<<<<< (aa) dot          0.00
                       o<<<<< (ab) str          0.00
                       o<<<<< (ab) gath         0.00
                       o<<<<< (ab) dotab        0.00
                       o<<<<< (ab) scat         0.00
                       o<<<<< (ab) sync         0.00
                       o<<<<< Density           2.24
                       o<<<<< Density one       0.08
                       o<<<<< Density two       0.98
                       o<<<<< Density ab        1.17
                       o<<<<< Spin adapt       11.65
                       o<<<<< Symm adapt        0.03

                       o<<<<< (ab) max sync:      0.00
       1.0000     -15.81928526 -1.75D-07 -1.75D-07  8.18D-07 1.8D-01   1019.1
  !! warning: moints 2x:                     2  MO vectors were symmetry contaminated

          Number of sigma calls:       36
                       o<<<<< (aa):             1.26
                       o<<<<< (bb):             1.93
                       o<<<<< (ab):            13.09
                       o<<<<< (total)          16.28
                       o<<<<< (aa) ff           0.00
                       o<<<<< (aa) gop          0.00
                       o<<<<< (aa) dot          0.00
                       o<<<<< (ab) str          0.00
                       o<<<<< (ab) gath         0.00
                       o<<<<< (ab) dotab        0.00
                       o<<<<< (ab) scat         0.00
                       o<<<<< (ab) sync         0.00
                       o<<<<< Density           2.27
                       o<<<<< Density one       0.08
                       o<<<<< Density two       1.02
                       o<<<<< Density ab        1.17
                       o<<<<< Spin adapt        9.52
                       o<<<<< Symm adapt        0.02

                       o<<<<< (ab) max sync:      0.00
       1.2138     -15.81928528  4.89D-10  4.75D-10  8.20D-07 4.9D-04   1049.7



          %%%%% MacroIteration   9 %%%%%


          Number of sigma calls:        1
                       o<<<<< (aa):             0.03
                       o<<<<< (bb):             0.05
                       o<<<<< (ab):             0.35
                       o<<<<< (total)           0.44
                       o<<<<< (aa) ff           0.00
                       o<<<<< (aa) gop          0.00
                       o<<<<< (aa) dot          0.00
                       o<<<<< (ab) str          0.00
                       o<<<<< (ab) gath         0.00
                       o<<<<< (ab) dotab        0.00
                       o<<<<< (ab) scat         0.00
                       o<<<<< (ab) sync         0.00
                       o<<<<< Density           2.23
                       o<<<<< Density one       0.08
                       o<<<<< Density two       0.97
                       o<<<<< Density ab        1.17
                       o<<<<< Spin adapt        0.00
                       o<<<<< Symm adapt        0.00

                       o<<<<< (ab) max sync:      0.00

           >>>| Valence CI:            -19.182290255300
           >>>| MCSCF energy:          -15.819285275485
           >>>| Gradient norm:          0.926876429D-04




     ==============================
            MCSCF Converged
     ==============================



          Canonical Eigenvalues

              1      
    1   -4.6627
    2   -0.5013
    3   -0.4605
    4   -0.0128
    5   -0.0068
    6   -0.0043
    7   -0.0043
    8   -0.0043
    9   -0.0041
   10   -0.0017
   11   -0.0017
   12   -0.0002
   13   -0.0001
   14   -0.0001
   15   -0.0001
   16   -0.0000
   17   -0.0000
   18    1.7706
   19    2.9245


          Converged CI vector

   Index           Coefficient          Config. Occupation
         1          0.06857829          1  2  4  1  2  4
        21          0.03443313          1  2  4  1  3  5
       682          0.02721519          1  2  6  1  2  6
       707         -0.02066466          1  2  6  1  3  9
    156631         -0.98174896          1  2  3  1  2  3
    156661          0.02062637          1  2  3  1  2  9
    156632          0.02202381          1  2  3  1  3  4
    166846          0.03936506          1  2  5  1  2  5
    166832         -0.04048615          1  2  5  1  3  4
    177031          0.02062637          1  2  9  1  2  3
    177061          0.03190425          1  2  9  1  2  9
    177034          0.02767352          1  2  9  1  3  6
    224767          0.02388845          1  2 10  1  3  8
    380632         -0.02388845          1  2 11  1  3  7
    157311          0.02202381          1  3  4  1  2  3
    157326         -0.04048615          1  3  4  1  2  5
    157312          0.04919575          1  3  4  1  3  4
    158701          0.02767352          1  3  6  1  2  9
    158674          0.02777586          1  3  6  1  3  6
     13601          0.03443313          1  3  5  1  2  4
     13621          0.02497781          1  3  5  1  3  5
     17682         -0.02066466          1  3  9  1  2  6
    348040         -0.02388845          1  3  7  1  2 11
    347992          0.05282667          1  3  7  1  3  7
    249211          0.02388845          1  3  8  1  2 10
    249247          0.05282667          1  3  8  1  3  8

          Number of sigma calls:        1
                       o<<<<< (aa):             0.03
                       o<<<<< (bb):             0.05
                       o<<<<< (ab):             0.35
                       o<<<<< (total)           0.43
                       o<<<<< (aa) ff           0.00
                       o<<<<< (aa) gop          0.00
                       o<<<<< (aa) dot          0.00
                       o<<<<< (ab) str          0.00
                       o<<<<< (ab) gath         0.00
                       o<<<<< (ab) dotab        0.00
                       o<<<<< (ab) scat         0.00
                       o<<<<< (ab) sync         0.00
                       o<<<<< Density           2.23
                       o<<<<< Density one       0.08
                       o<<<<< Density two       0.98
                       o<<<<< Density ab        1.17
                       o<<<<< Spin adapt        0.00
                       o<<<<< Symm adapt        0.00

                       o<<<<< (ab) max sync:      0.00



          Natural orbital occupation numbers

              1      
    1    1.9994
    2    1.9675
    3    1.9647
    4    0.0219
    5    0.0114
    6    0.0078
    7    0.0078
    8    0.0067
    9    0.0066
   10    0.0028
   11    0.0028
   12    0.0004
   13    0.0001
   14    0.0001
   15    0.0000
   16    0.0000
   17    0.0000

  !! warning: moints 2x:                     1  MO vectors were symmetry contaminated

          Number of sigma calls:       79
                       o<<<<< (aa):             2.55
                       o<<<<< (bb):             3.90
                       o<<<<< (ab):            28.00
                       o<<<<< (total)          34.45
                       o<<<<< (aa) ff           0.00
                       o<<<<< (aa) gop          0.00
                       o<<<<< (aa) dot          0.00
                       o<<<<< (ab) str          0.00
                       o<<<<< (ab) gath         0.00
                       o<<<<< (ab) dotab        0.00
                       o<<<<< (ab) scat         0.00
                       o<<<<< (ab) sync         0.00
                       o<<<<< Density           2.23
                       o<<<<< Density one       0.08
                       o<<<<< Density two       0.97
                       o<<<<< Density ab        1.17
                       o<<<<< Spin adapt       20.17
                       o<<<<< Symm adapt        0.06

                       o<<<<< (ab) max sync:      0.00


       Final MCSCF results 
       ------------------- 

       Total MCSCF energy =    -15.819285275484
            Gradient norm =      9.3D-05

    CPU time for solution =   1117.7s
   Wall time for solution =   1430.3s



                        Analysis of MCSCF natural orbitals
                        ----------------------------------

 Vector    1  Occ=1.999429D+00  E=-4.662653D+00  Symmetry=ag
              MO Center= -4.7D-25, -2.4D-29,  6.1D-19, r^2= 6.5D-02
   Bfn.  Coefficient  Atom+Function         Bfn.  Coefficient  Atom+Function  
  ----- ------------  ---------------      ----- ------------  ---------------
     1      1.001437  1 Be s          

 Vector    2  Occ=1.967451D+00  E=-5.013262D-01  Symmetry=b1u
              MO Center=  0.0D+00,  0.0D+00, -2.8D-17, r^2= 2.2D+00
   Bfn.  Coefficient  Atom+Function         Bfn.  Coefficient  Atom+Function  
  ----- ------------  ---------------      ----- ------------  ---------------
     5      0.390593  1 Be pz                16      0.235028  2 H  s          
    18     -0.235028  3 H  s                 17      0.205504  2 H  s          
    19     -0.205504  3 H  s          

 Vector    3  Occ=1.964713D+00  E=-4.604570D-01  Symmetry=ag
              MO Center= -6.1D-35, -1.8D-31, -1.1D-15, r^2= 2.1D+00
   Bfn.  Coefficient  Atom+Function         Bfn.  Coefficient  Atom+Function  
  ----- ------------  ---------------      ----- ------------  ---------------
     6      0.268224  1 Be s                  2      0.233958  1 Be s          
    17      0.225389  2 H  s                 19      0.225389  3 H  s          
    16      0.198477  2 H  s                 18      0.198477  3 H  s          
     1     -0.159918  1 Be s          

 Vector    4  Occ=2.191607D-02  E=-1.281836D-02  Symmetry=ag
              MO Center=  0.0D+00,  0.0D+00, -1.4D-17, r^2= 2.0D+00
   Bfn.  Coefficient  Atom+Function         Bfn.  Coefficient  Atom+Function  
  ----- ------------  ---------------      ----- ------------  ---------------
     2      0.704505  1 Be s                 16     -0.611836  2 H  s          
    18     -0.611836  3 H  s                  6      0.559750  1 Be s          
    17     -0.239088  2 H  s                 19     -0.239088  3 H  s          

 Vector    5  Occ=1.141555D-02  E=-6.804161D-03  Symmetry=b1u
              MO Center= -7.3D-22, -4.7D-23,  9.4D-16, r^2= 1.8D+00
   Bfn.  Coefficient  Atom+Function         Bfn.  Coefficient  Atom+Function  
  ----- ------------  ---------------      ----- ------------  ---------------
     5      1.263681  1 Be pz                17     -0.735702  2 H  s          
    19      0.735702  3 H  s                 16     -0.595041  2 H  s          
    18      0.595041  3 H  s                  9      0.563707  1 Be pz         

 Vector    6  Occ=7.764801D-03  E=-4.259118D-03  Symmetry=b3u
              MO Center=  1.1D-24,  1.4D-33,  8.5D-37, r^2= 1.7D+00
   Bfn.  Coefficient  Atom+Function         Bfn.  Coefficient  Atom+Function  
  ----- ------------  ---------------      ----- ------------  ---------------
     3      0.793153  1 Be px                 7      0.277107  1 Be px         

 Vector    7  Occ=7.764801D-03  E=-4.258293D-03  Symmetry=b2u
              MO Center= -2.6D-32, -1.4D-29, -1.0D-36, r^2= 1.7D+00
   Bfn.  Coefficient  Atom+Function         Bfn.  Coefficient  Atom+Function  
  ----- ------------  ---------------      ----- ------------  ---------------
     4      0.793153  1 Be py                 8      0.277107  1 Be py         

 Vector    8  Occ=6.713153D-03  E=-4.258292D-03  Symmetry=ag
              MO Center= -3.1D-23, -3.6D-24, -5.2D-14, r^2= 3.5D+00
   Bfn.  Coefficient  Atom+Function         Bfn.  Coefficient  Atom+Function  
  ----- ------------  ---------------      ----- ------------  ---------------
     2      1.996878  1 Be s                 17     -0.827352  2 H  s          
    19     -0.827352  3 H  s                  6     -0.532509  1 Be s          
    10     -0.500359  1 Be dxx               13     -0.500359  1 Be dyy        
    15      0.405421  1 Be dzz        

 Vector    9  Occ=6.600244D-03  E=-4.100410D-03  Symmetry=b1u
              MO Center= -6.7D-38, -6.8D-38,  5.1D-14, r^2= 4.3D+00
   Bfn.  Coefficient  Atom+Function         Bfn.  Coefficient  Atom+Function  
  ----- ------------  ---------------      ----- ------------  ---------------
     5      0.769430  1 Be pz                17     -0.697004  2 H  s          
    19      0.697004  3 H  s                  9     -0.572261  1 Be pz         
    16      0.556134  2 H  s                 18     -0.556134  3 H  s          

 Vector   10  Occ=2.793889D-03  E=-1.706408D-03  Symmetry=b3g
              MO Center= -1.2D-58, -5.1D-21, -6.8D-39, r^2= 1.2D+00
   Bfn.  Coefficient  Atom+Function         Bfn.  Coefficient  Atom+Function  
  ----- ------------  ---------------      ----- ------------  ---------------
    14      1.732051  1 Be dyz        

 Vector   11  Occ=2.793889D-03  E=-1.706407D-03  Symmetry=b2g
              MO Center= -3.7D-21, -2.5D-59,  1.2D-39, r^2= 1.2D+00
   Bfn.  Coefficient  Atom+Function         Bfn.  Coefficient  Atom+Function  
  ----- ------------  ---------------      ----- ------------  ---------------
    12      1.732051  1 Be dxz        

 Vector   12  Occ=3.684771D-04  E=-1.950087D-04  Symmetry=ag
              MO Center=  5.7D-22,  2.1D-22, -4.9D-16, r^2= 1.0D+00
   Bfn.  Coefficient  Atom+Function         Bfn.  Coefficient  Atom+Function  
  ----- ------------  ---------------      ----- ------------  ---------------
     2      6.756843  1 Be s                 15     -3.092604  1 Be dzz        
    10     -2.635858  1 Be dxx               13     -2.635857  1 Be dyy        
     6     -1.108356  1 Be s                 17      0.307126  2 H  s          
    19      0.307126  3 H  s                  1     -0.284217  1 Be s          

 Vector   13  Occ=6.942932D-05  E=-1.328339D-04  Symmetry=b2u
              MO Center= -5.0D-17,  2.3D-15,  2.4D-33, r^2= 4.7D+00
   Bfn.  Coefficient  Atom+Function         Bfn.  Coefficient  Atom+Function  
  ----- ------------  ---------------      ----- ------------  ---------------
     8      1.316743  1 Be py                 4     -1.086972  1 Be py         

 Vector   14  Occ=6.942931D-05  E=-1.328338D-04  Symmetry=b3u
              MO Center=  1.4D-19,  7.8D-17,  6.3D-34, r^2= 4.7D+00
   Bfn.  Coefficient  Atom+Function         Bfn.  Coefficient  Atom+Function  
  ----- ------------  ---------------      ----- ------------  ---------------
     7      1.316743  1 Be px                 3     -1.086972  1 Be px         

 Vector   15  Occ=4.866315D-05  E=-7.075105D-05  Symmetry=b1u
              MO Center= -1.8D-31, -5.8D-30, -6.7D-16, r^2= 6.6D+00
   Bfn.  Coefficient  Atom+Function         Bfn.  Coefficient  Atom+Function  
  ----- ------------  ---------------      ----- ------------  ---------------
     9      3.381526  1 Be pz                17     -3.020922  2 H  s          
    19      3.020922  3 H  s                 16      0.715489  2 H  s          
    18     -0.715489  3 H  s          

 Vector   16  Occ=4.394075D-05  E=-4.139209D-05  Symmetry=ag
              MO Center=  1.2D-21, -2.3D-15,  1.8D-19, r^2= 1.2D+00
   Bfn.  Coefficient  Atom+Function         Bfn.  Coefficient  Atom+Function  
  ----- ------------  ---------------      ----- ------------  ---------------
    10      0.866022  1 Be dxx               13     -0.866029  1 Be dyy        

 Vector   17  Occ=4.394075D-05  E=-4.139209D-05  Symmetry=b1g
              MO Center=  0.0D+00,  0.0D+00,  1.3D-66, r^2= 1.2D+00
   Bfn.  Coefficient  Atom+Function         Bfn.  Coefficient  Atom+Function  
  ----- ------------  ---------------      ----- ------------  ---------------
    11      1.732051  1 Be dxy        

 Vector   18  Occ=0.000000D+00  E= 1.770627D+00  Symmetry=ag
              MO Center= -7.3D-20,  3.2D-24,  2.8D-17, r^2= 2.0D+00
   Bfn.  Coefficient  Atom+Function         Bfn.  Coefficient  Atom+Function  
  ----- ------------  ---------------      ----- ------------  ---------------
    15      1.090544  1 Be dzz               16     -0.909576  2 H  s          
    18     -0.909576  3 H  s                 17      0.658827  2 H  s          
    19      0.658827  3 H  s                 10     -0.561891  1 Be dxx        
    13     -0.561883  1 Be dyy                6     -0.248035  1 Be s          

 Vector   19  Occ=0.000000D+00  E= 2.924483D+00  Symmetry=ag
              MO Center= -6.8D-20, -2.9D-24,  1.1D-16, r^2= 4.6D+00
   Bfn.  Coefficient  Atom+Function         Bfn.  Coefficient  Atom+Function  
  ----- ------------  ---------------      ----- ------------  ---------------
     6      2.643883  1 Be s                 17     -1.336825  2 H  s          
    19     -1.336825  3 H  s                 10     -0.960099  1 Be dxx        
    13     -0.960100  1 Be dyy                2      0.529587  1 Be s          
    16      0.347302  2 H  s                 18      0.347302  3 H  s          
    15     -0.296678  1 Be dzz        


 Wrote Lagrangian and 1- and 2-particle density matrices to ./mcscf_beh2_dat.mcpdm


     Multipole analysis of the density
     ---------------------------------

     L   x y z        total        nuclear
     -   - - -        -----        -------
     0   0 0 0     -0.000000      6.000000

     1   1 0 0      0.000000      0.000000
     1   0 1 0     -0.000000      0.000000
     1   0 0 1      0.000000      0.000000

     2   2 0 0     -4.905966      0.000000
     2   1 1 0      0.000000      0.000000
     2   1 0 1     -0.000000      0.000000
     2   0 2 0     -4.905966      0.000000
     2   0 1 1     -0.000000      0.000000
     2   0 0 2     -8.330015     12.776527


  Mulliken analysis of the total density
  --------------------------------------

    Atom       Charge   Shell Charges
 -----------   ------   -------------------------------------------------------
    1 Be   4     3.91   2.00  0.40  0.70  0.46  0.25  0.09
    2 H    1     1.05   0.48  0.56
    3 H    1     1.05   0.48  0.56

    Mulliken analysis of the active space density
    ---------------------------------------------

    Atom       Charge   Shell Charges
 -----------   ------   -------------------------------------------------------
    1 Be   4     3.91   2.00  0.40  0.70  0.46  0.25  0.09
    2 H    1     1.05   0.48  0.56
    3 H    1     1.05   0.48  0.56

 Parallel integral file used       1 records with       0 large values


 Task  times  cpu:     1117.7s     wall:     1430.3s


                                NWChem Input Module
                                -------------------


 Summary of allocated global arrays
-----------------------------------
  No active global arrays



                         GA Statistics for process    0
                         ------------------------------

       create   destroy   get      put      acc     scatter   gather  read&inc
calls: 7484     7484     3.53e+06 9.40e+05 2.54e+06 4.16e+04    0     4.04e+05 
number of processes/call 1.00e+00 1.00e+00 1.00e+00 0.00e+00 0.00e+00
bytes total:             2.10e+10 3.48e+10 5.11e+09 7.34e+08 0.00e+00 3.23e+06
bytes remote:            0.00e+00 0.00e+00 0.00e+00 0.00e+00 0.00e+00 0.00e+00
Max memory consumed for GA by this process: 71187488 bytes

MA_summarize_allocated_blocks: starting scan ...
MA_summarize_allocated_blocks: scan completed: 0 heap blocks, 0 stack blocks
MA usage statistics:

	allocation statistics:
					      heap	     stack
					      ----	     -----
	current number of blocks	         0	         0
	maximum number of blocks	        19	        22
	current total bytes		         0	         0
	maximum total bytes		   1126088	  22509432
	maximum total K-bytes		      1127	     22510
	maximum total M-bytes		         2	        23


                                     CITATION
                                     --------
                Please cite the following reference when publishing
                           results obtained with NWChem:

                 M. Valiev, E.J. Bylaska, N. Govind, K. Kowalski,
              T.P. Straatsma, H.J.J. van Dam, D. Wang, J. Nieplocha,
                        E. Apra, T.L. Windus, W.A. de Jong
                 "NWChem: a comprehensive and scalable open-source
                  solution for large scale molecular simulations"
                      Comput. Phys. Commun. 181, 1477 (2010)
                           doi:10.1016/j.cpc.2010.04.018

                                      AUTHORS
                                      -------
          E. Apra, E. J. Bylaska, W. A. de Jong, N. Govind, K. Kowalski,
       T. P. Straatsma, M. Valiev, H. J. J. van Dam, D. Wang, T. L. Windus,
        J. Hammond, J. Autschbach, K. Bhaskaran-Nair, J. Brabec, K. Lopata,
    S. A. Fischer, S. Krishnamoorthy, M. Jacquelin, W. Ma, M. Klemm, O. Villa,
      Y. Chen, V. Anisimov, F. Aquino, S. Hirata, M. T. Hackler, V. Konjkov,
      T. Risthaus, M. Malagoli, A. Marenich, A. Otero-de-la-Roza, J. Mullin,
        P. Nichols, R. Peverati, J. Pittner, Y. Zhao, P.-D. Fan, A. Fonari,
       M. Williamson, R. J. Harrison, J. R. Rehr, M. Dupuis, D. Silverstein,
    D. M. A. Smith, J. Nieplocha, V. Tipparaju, M. Krishnan, B. E. Van Kuiken,
        A. Vazquez-Mayagoitia, L. Jensen, M. Swart, Q. Wu, T. Van Voorhis,
     A. A. Auer, M. Nooijen, L. D. Crosby, E. Brown, G. Cisneros, G. I. Fann,
   H. Fruchtl, J. Garza, K. Hirao, R. A. Kendall, J. A. Nichols, K. Tsemekhman,
    K. Wolinski, J. Anchell, D. E. Bernholdt, P. Borowski, T. Clark, D. Clerc,
   H. Dachsel, M. J. O. Deegan, K. Dyall, D. Elwood, E. Glendening, M. Gutowski,
   A. C. Hess, J. Jaffe, B. G. Johnson, J. Ju, R. Kobayashi, R. Kutteh, Z. Lin,
   R. Littlefield, X. Long, B. Meng, T. Nakajima, S. Niu, L. Pollack, M. Rosing,
   K. Glaesemann, G. Sandrone, M. Stave, H. Taylor, G. Thomas, J. H. van Lenthe,
                               A. T. Wong, Z. Zhang.

 Total times  cpu:     1117.8s     wall:     1431.0s
