 argument  1 = wfn1_beh2.nw



============================== echo of input deck ==============================
echo
start wfn1_beh2_dat

geometry
  be     0.00000000     0.00000000     0.00000000
  h      0.00000000     0.00000000     1.33749627
  h      0.00000000     0.00000000    -1.33749627
end
basis
  * library 6-31g*
end

set wfn1:t_bath 0.0
set wfn1:maxit  200
set wfn1:print_error T

task wfn1 energy

set wfn1:t_initial 0.5
set wfn1:t_bath    0.0475
set wfn1:maxit  2000
set wfn1:print_error T

task wfn1 energy
================================================================================


                                         
                                         


              Northwest Computational Chemistry Package (NWChem) 6.8
              ------------------------------------------------------


                    Environmental Molecular Sciences Laboratory
                       Pacific Northwest National Laboratory
                                Richland, WA 99352

                              Copyright (c) 1994-2015
                       Pacific Northwest National Laboratory
                            Battelle Memorial Institute

             NWChem is an open-source computational chemistry package
                        distributed under the terms of the
                      Educational Community License (ECL) 2.0
             A copy of the license is included with this distribution
                              in the LICENSE.TXT file

                                  ACKNOWLEDGMENT
                                  --------------

            This software and its documentation were developed at the
            EMSL at Pacific Northwest National Laboratory, a multiprogram
            national laboratory, operated for the U.S. Department of Energy
            by Battelle under Contract Number DE-AC05-76RL01830. Support
            for this work was provided by the Department of Energy Office
            of Biological and Environmental Research, Office of Basic
            Energy Sciences, and the Office of Advanced Scientific Computing.


           Job information
           ---------------

    hostname        = erato
    program         = ../../../bin/LINUX64/nwchem
    date            = Mon May  7 14:54:01 2018

    compiled        = Sun_May_06_22:49:06_2018
    source          = /home/hvandam/nwchem-1-wfn1
    nwchem branch   = Development
    nwchem revision = nwchem_on_git-51-gcccac83fc2a4226c5c513281d68ab773edcb0a0d
    ga revision     = nwchem_on_git-43-g1da910a
    use scalapack   = F
    input           = wfn1_beh2.nw
    prefix          = wfn1_beh2_dat.
    data base       = ./wfn1_beh2_dat.db
    status          = startup
    nproc           =        1
    time left       =     -1s



           Memory information
           ------------------

    heap     =   13107196 doubles =    100.0 Mbytes
    stack    =   13107201 doubles =    100.0 Mbytes
    global   =   26214400 doubles =    200.0 Mbytes (distinct from heap & stack)
    total    =   52428797 doubles =    400.0 Mbytes
    verify   = yes
    hardfail = no 


           Directory information
           ---------------------

  0 permanent = .
  0 scratch   = .




                                NWChem Input Module
                                -------------------



 Scaling coordinates for geometry "geometry" by  1.889725989
 (inverse scale =  0.529177249)

 ORDER OF PRIMARY AXIS IS BEING SET TO 4
 D4H symmetry detected

          ------
          auto-z
          ------
  autoz: insufficient variables                     2                    3
     1 autoz failed with cvr_scaling = 1.2 changing to 1.3
  autoz: insufficient variables                     2                    3
     2 autoz failed with cvr_scaling = 1.3 changing to 1.4
  autoz: insufficient variables                     2                    3
     3 autoz failed with cvr_scaling = 1.4 changing to 1.5
  autoz: insufficient variables                     2                    3
     4 autoz failed with cvr_scaling = 1.5 changing to 1.6
  autoz: insufficient variables                     2                    3
     5 autoz failed with cvr_scaling = 1.6 changing to 1.7
  autoz: insufficient variables                     2                    3

 AUTOZ failed to generate good internal coordinates.
 Cartesian coordinates will be used in optimizations.



                             Geometry "geometry" -> ""
                             -------------------------

 Output coordinates in angstroms (scale by  1.889725989 to convert to a.u.)

  No.       Tag          Charge          X              Y              Z
 ---- ---------------- ---------- -------------- -------------- --------------
    1 be                   4.0000     0.00000000     0.00000000     0.00000000
    2 h                    1.0000     0.00000000     0.00000000     1.33749627
    3 h                    1.0000     0.00000000     0.00000000    -1.33749627

      Atomic Mass 
      ----------- 

      be                 9.012180
      h                  1.007825


 Effective nuclear repulsion energy (a.u.)       3.3630049798

            Nuclear Dipole moment (a.u.) 
            ----------------------------
        X                 Y               Z
 ---------------- ---------------- ----------------
     0.0000000000     0.0000000000     0.0000000000

      Symmetry information
      --------------------

 Group name             D4h       
 Group number             28
 Group order              16
 No. of unique centers     2

      Symmetry unique atoms

     1    2


            XYZ format geometry
            -------------------
     3
 geometry
 be                    0.00000000     0.00000000     0.00000000
 h                     0.00000000     0.00000000     1.33749627
 h                     0.00000000     0.00000000    -1.33749627

 ==============================================================================
                                internuclear distances
 ------------------------------------------------------------------------------
       center one      |      center two      | atomic units |  angstroms
 ------------------------------------------------------------------------------
    2 h                |   1 be               |     2.52750  |     1.33750
    3 h                |   1 be               |     2.52750  |     1.33750
 ------------------------------------------------------------------------------
                         number of included internuclear distances:          2
 ==============================================================================



 ==============================================================================
                                 internuclear angles
 ------------------------------------------------------------------------------
        center 1       |       center 2       |       center 3       |  degrees
 ------------------------------------------------------------------------------
    2 h                |   1 be               |   3 h                |   180.00
 ------------------------------------------------------------------------------
                            number of included internuclear angles:          1
 ==============================================================================





 Summary of "ao basis" -> "" (cartesian)
 ------------------------------------------------------------------------------
       Tag                 Description            Shells   Functions and Types
 ---------------- ------------------------------  ------  ---------------------
 *                           6-31g*                   on all atoms 



                                NWChem WFN1 Module
                                ------------------


                      Basis "ao basis" -> "ao basis" (cartesian)
                      -----
  be (Beryllium)
  --------------
            Exponent  Coefficients 
       -------------- ---------------------------------------------------------
  1 S  1.26458570E+03  0.001945
  1 S  1.89936810E+02  0.014835
  1 S  4.31590890E+01  0.072091
  1 S  1.20986630E+01  0.237154
  1 S  3.80632320E+00  0.469199
  1 S  1.27289030E+00  0.356520

  2 S  3.19646310E+00 -0.112649
  2 S  7.47813300E-01 -0.229506
  2 S  2.19966300E-01  1.186917

  3 P  3.19646310E+00  0.055980
  3 P  7.47813300E-01  0.261551
  3 P  2.19966300E-01  0.793972

  4 S  8.23099000E-02  1.000000

  5 P  8.23099000E-02  1.000000

  6 D  4.00000000E-01  1.000000

  h (Hydrogen)
  ------------
            Exponent  Coefficients 
       -------------- ---------------------------------------------------------
  1 S  1.87311370E+01  0.033495
  1 S  2.82539370E+00  0.234727
  1 S  6.40121700E-01  0.813757

  2 S  1.61277800E-01  1.000000



 Summary of "ao basis" -> "ao basis" (cartesian)
 ------------------------------------------------------------------------------
       Tag                 Description            Shells   Functions and Types
 ---------------- ------------------------------  ------  ---------------------
 be                          6-31g*                  6       15   3s2p1d
 h                           6-31g*                  2        2   2s



      Superposition of Atomic Density Guess
      -------------------------------------

 Sum of atomic energies:         -15.56322911

      Non-variational initial energy
      ------------------------------

 Total energy =     -15.617629
 1-e energy   =     -26.606648
 2-e energy   =       7.626014
 HOMO         =      -0.343580
 LUMO         =       0.058684

 iteration              energy           error          err Na          err Nb          err Ca          err Cb
 ---------              ------           -----          ------          ------          ------          ------
         1        -15.76313924        0.134371        0.067185        0.067185        0.000000        0.000000
         2        -15.76454701        0.314556        0.157278        0.157278        0.000000        0.000000
         3        -15.76501898        0.510062        0.255031        0.255031        0.000000        0.000000
         4        -15.76528031        0.798360        0.399180        0.399180        0.000000        0.000000
         5        -15.76545422        0.737537        0.368769        0.368769        0.000000        0.000000
         6        -15.76557620        1.441448        0.720724        0.720724        0.000000        0.000000
         7        -15.76566319        1.272833        0.636416        0.636416        0.000000        0.000000
         8        -15.76572787        2.321308        1.160654        1.160654        0.000000        0.000000
         9        -15.76577480        1.913773        0.956886        0.956886        0.000000        0.000000
        10        -15.76581093        3.158211        1.579105        1.579105        0.000000        0.000000
        11        -15.76583716        2.520249        1.260125        1.260125        0.000000        0.000000
        12        -15.76585798        3.672267        1.836134        1.836134        0.000000        0.000000
        13        -15.76587318        3.061116        1.530558        1.530558        0.000000        0.000000
        14        -15.76588541        3.877767        1.938884        1.938884        0.000000        0.000000
        15        -15.76589453        3.530785        1.765393        1.765393        0.000000        0.000000
        16        -15.76590183        3.983090        1.991545        1.991545        0.000000        0.000000
        17        -15.76590742        3.893743        1.946872        1.946872        0.000000        0.000000
        18        -15.76591186        4.130380        2.065190        2.065190        0.000000        0.000000
        19        -15.76591532        4.171315        2.085657        2.085657        0.000000        0.000000
        20        -15.76591805        4.331182        2.165591        2.165591        0.000000        0.000000
        21        -15.76592020        4.412329        2.206165        2.206165        0.000000        0.000000
        22        -15.76592190        4.548681        2.274340        2.274340        0.000000        0.000000
        23        -15.76592324        4.629799        2.314900        2.314900        0.000000        0.000000
        24        -15.76592430        4.748594        2.374297        2.374297        0.000000        0.000000
        25        -15.76592514        4.813523        2.406762        2.406762        0.000000        0.000000
        26        -15.76592580        4.912997        2.456498        2.456498        0.000000        0.000000
        27        -15.76592633        4.958601        2.479301        2.479301        0.000000        0.000000
        28        -15.76592675        5.040786        2.520393        2.520393        0.000000        0.000000
        29        -15.76592709        5.069958        2.534979        2.534979        0.000000        0.000000
        30        -15.76592736        5.138916        2.569458        2.569458        0.000000        0.000000
        31        -15.76592757        5.155651        2.577826        2.577826        0.000000        0.000000
        32        -15.76592774        5.215145        2.607572        2.607572        0.000000        0.000000
        33        -15.76592787        5.222685        2.611343        2.611343        0.000000        0.000000
        34        -15.76592798        5.275553        2.637776        2.637776        0.000000        0.000000
        35        -15.76592807        7.185221        3.592610        3.592610        0.000000        0.000000
        36        -15.76592814        4.159765        2.079883        2.079883        0.000000        0.000000
        37        -15.76592820        8.442785        4.221392        4.221392        0.000000        0.000000
        38        -15.76592824        3.398005        1.699003        1.699003        0.000000        0.000000
        39        -15.76592828        9.034981        4.517490        4.517490        0.000000        0.000000
        40        -15.76592831        3.004794        1.502397        1.502397        0.000000        0.000000
        41        -15.76592833        9.150380        4.575190        4.575190        0.000000        0.000000
        42        -15.76592835        2.898751        1.449376        1.449376        0.000000        0.000000
        43        -15.76592837        9.174243        4.587121        4.587121        0.000000        0.000000
        44        -15.76592838        2.877770        1.438885        1.438885        0.000000        0.000000
        45        -15.76592839        9.195137        4.597569        4.597569        0.000000        0.000000
        46        -15.76592839        2.868339        1.434170        1.434170        0.000000        0.000000
        47        -15.76592840        9.213815        4.606908        4.606908        0.000000        0.000000
        48        -15.76592840        2.861523        1.430761        1.430761        0.000000        0.000000
        49        -15.76592841        9.228581        4.614290        4.614290        0.000000        0.000000
        50        -15.76592841        2.855782        1.427891        1.427891        0.000000        0.000000
        51        -15.76592841        0.000906        0.000453        0.000453        0.000000        0.000000
        52        -15.76592842        0.071932        0.035966        0.035966        0.000000        0.000000
        53        -15.76592842        0.014164        0.007082        0.007082        0.000000        0.000000
        54        -15.76592842        0.048993        0.024496        0.024496        0.000000        0.000000
        55        -15.76592842        0.036697        0.018348        0.018348        0.000000        0.000000
        56        -15.76592842        0.106447        0.053224        0.053224        0.000000        0.000000
        57        -15.76592842        0.082840        0.041420        0.041420        0.000000        0.000000
        58        -15.76592842        0.235417        0.117708        0.117708        0.000000        0.000000
        59        -15.76592842        0.192125        0.096062        0.096062        0.000000        0.000000
        60        -15.76592842        0.486834        0.243417        0.243417        0.000000        0.000000
        61        -15.76592842        0.461324        0.230662        0.230662        0.000000        0.000000
        62        -15.76592842        0.991244        0.495622        0.495622        0.000000        0.000000
        63        -15.76592842        0.000000        0.000000        0.000000        0.000000        0.000000

 Reached Convergence

 WFN1                     :
 --------------------------
 Total WFN1 energy =         -15.7659284184
 1-Electron energy =         -27.0517895596
 2-Electron energy =           7.9228561614
 Entropy energy    =           0.0000000000
 Nuclear energy    =           3.3630049798

 conventional Hartree-Fock:
 --------------------------
 Total SCF energy  =         -15.7659284184
 2-Electron energy =           7.9228561614

                WFN1 Final Natural orbital energies and occupations
                ---------------------------------------------------

              Alpha       Beta            Alpha       Beta  
            --------    --------        --------    --------
       1     -4.6726     -4.6726          1.0000      1.0000
       2     -0.4864     -0.4864          1.0000      1.0000
       3     -0.4441     -0.4441          1.0000      1.0000
       4      0.0000      0.0000          0.0000      0.0000
       5      0.0000      0.0000          0.0000      0.0000
       6      0.0000      0.0000          0.0000      0.0000
       7      0.0000      0.0000          0.0000      0.0000
       8      0.0000      0.0000          0.0000      0.0000
       9      0.0000      0.0000          0.0000      0.0000
      10      0.0000      0.0000          0.0000      0.0000
      11      0.0000      0.0000          0.0000      0.0000
      12      0.0000      0.0000          0.0000      0.0000
      13      0.0000      0.0000          0.0000      0.0000
      14      0.0000      0.0000          0.0000      0.0000
      15      0.0000      0.0000          0.0000      0.0000
      16      0.0000      0.0000          0.0000      0.0000
      17      0.0000      0.0000          0.0000      0.0000
      18      0.0000      0.0000          0.0000      0.0000
      19      0.0000      0.0000          0.0000      0.0000

             WFN1 Final Correlation function energies and occupations
             --------------------------------------------------------

              Alpha       Beta            Alpha       Beta  
            --------    --------        --------    --------
       1     -4.6726     -4.6726          1.0000      1.0000
       2     -0.4864     -0.4864          1.0000      1.0000
       3     -0.4441     -0.4441          1.0000      1.0000
       4      0.3334      0.3334          0.0000      0.0000
       5      0.5736      0.5736          0.0000      0.0000
       6      0.6298      0.6298          0.0000      0.0000
       7      0.6691      0.6691          0.0000      0.0000
       8      0.7145      0.7145          0.0000      0.0000
       9      0.7228      0.7228          0.0000      0.0000
      10      0.7663      0.7663          0.0000      0.0000
      11      0.7672      0.7672          0.0000      0.0000
      12      0.8070      0.8070          0.0000      0.0000
      13      0.8634      0.8634          0.0000      0.0000
      14      0.8722      0.8722          0.0000      0.0000
      15      0.8995      0.8995          0.0000      0.0000
      16      0.9096      0.9096          0.0000      0.0000
      17      0.9635      0.9635          0.0000      0.0000
      18      1.1160      1.1160          0.0000      0.0000
      19      2.5363      2.5363          0.0000      0.0000

                WFN1 Final alpha-alpha 2-matrix occupation numbers
                --------------------------------------------------


 global array: g_momo1[1:19,1:19],  handle: -994 

            1           2           3           4           5           6  
       ----------- ----------- ----------- ----------- ----------- -----------
   1       0.00000     1.00000     1.00000     0.00000     0.00000     0.00000
   2       1.00000     0.00000     1.00000     0.00000     0.00000     0.00000
   3       1.00000     1.00000     0.00000     0.00000     0.00000     0.00000
   4       0.00000     0.00000     0.00000     0.00000     0.00000     0.00000
   5       0.00000     0.00000     0.00000     0.00000     0.00000     0.00000
   6       0.00000     0.00000     0.00000     0.00000     0.00000     0.00000
   7       0.00000     0.00000     0.00000     0.00000     0.00000     0.00000
   8       0.00000     0.00000     0.00000     0.00000     0.00000     0.00000
   9       0.00000     0.00000     0.00000     0.00000     0.00000     0.00000
  10       0.00000     0.00000     0.00000     0.00000     0.00000     0.00000
  11       0.00000     0.00000     0.00000     0.00000     0.00000     0.00000
  12       0.00000     0.00000     0.00000     0.00000     0.00000     0.00000
  13       0.00000     0.00000     0.00000     0.00000     0.00000     0.00000
  14       0.00000     0.00000     0.00000     0.00000     0.00000     0.00000
  15       0.00000     0.00000     0.00000     0.00000     0.00000     0.00000
  16       0.00000     0.00000     0.00000     0.00000     0.00000     0.00000
  17       0.00000     0.00000     0.00000     0.00000     0.00000     0.00000
  18       0.00000     0.00000     0.00000     0.00000     0.00000     0.00000
  19       0.00000     0.00000     0.00000     0.00000     0.00000     0.00000

            7           8           9          10          11          12  
       ----------- ----------- ----------- ----------- ----------- -----------
   1       0.00000     0.00000     0.00000     0.00000     0.00000     0.00000
   2       0.00000     0.00000     0.00000     0.00000     0.00000     0.00000
   3       0.00000     0.00000     0.00000     0.00000     0.00000     0.00000
   4       0.00000     0.00000     0.00000     0.00000     0.00000     0.00000
   5       0.00000     0.00000     0.00000     0.00000     0.00000     0.00000
   6       0.00000     0.00000     0.00000     0.00000     0.00000     0.00000
   7       0.00000     0.00000     0.00000     0.00000     0.00000     0.00000
   8       0.00000     0.00000     0.00000     0.00000     0.00000     0.00000
   9       0.00000     0.00000     0.00000     0.00000     0.00000     0.00000
  10       0.00000     0.00000     0.00000     0.00000     0.00000     0.00000
  11       0.00000     0.00000     0.00000     0.00000     0.00000     0.00000
  12       0.00000     0.00000     0.00000     0.00000     0.00000     0.00000
  13       0.00000     0.00000     0.00000     0.00000     0.00000     0.00000
  14       0.00000     0.00000     0.00000     0.00000     0.00000     0.00000
  15       0.00000     0.00000     0.00000     0.00000     0.00000     0.00000
  16       0.00000     0.00000     0.00000     0.00000     0.00000     0.00000
  17       0.00000     0.00000     0.00000     0.00000     0.00000     0.00000
  18       0.00000     0.00000     0.00000     0.00000     0.00000     0.00000
  19       0.00000     0.00000     0.00000     0.00000     0.00000     0.00000

           13          14          15          16          17          18  
       ----------- ----------- ----------- ----------- ----------- -----------
   1       0.00000     0.00000     0.00000     0.00000     0.00000     0.00000
   2       0.00000     0.00000     0.00000     0.00000     0.00000     0.00000
   3       0.00000     0.00000     0.00000     0.00000     0.00000     0.00000
   4       0.00000     0.00000     0.00000     0.00000     0.00000     0.00000
   5       0.00000     0.00000     0.00000     0.00000     0.00000     0.00000
   6       0.00000     0.00000     0.00000     0.00000     0.00000     0.00000
   7       0.00000     0.00000     0.00000     0.00000     0.00000     0.00000
   8       0.00000     0.00000     0.00000     0.00000     0.00000     0.00000
   9       0.00000     0.00000     0.00000     0.00000     0.00000     0.00000
  10       0.00000     0.00000     0.00000     0.00000     0.00000     0.00000
  11       0.00000     0.00000     0.00000     0.00000     0.00000     0.00000
  12       0.00000     0.00000     0.00000     0.00000     0.00000     0.00000
  13       0.00000     0.00000     0.00000     0.00000     0.00000     0.00000
  14       0.00000     0.00000     0.00000     0.00000     0.00000     0.00000
  15       0.00000     0.00000     0.00000     0.00000     0.00000     0.00000
  16       0.00000     0.00000     0.00000     0.00000     0.00000     0.00000
  17       0.00000     0.00000     0.00000     0.00000     0.00000     0.00000
  18       0.00000     0.00000     0.00000     0.00000     0.00000     0.00000
  19       0.00000     0.00000     0.00000     0.00000     0.00000     0.00000

           19  
       -----------
   1       0.00000
   2       0.00000
   3       0.00000
   4       0.00000
   5       0.00000
   6       0.00000
   7       0.00000
   8       0.00000
   9       0.00000
  10       0.00000
  11       0.00000
  12       0.00000
  13       0.00000
  14       0.00000
  15       0.00000
  16       0.00000
  17       0.00000
  18       0.00000
  19       0.00000

                 WFN1 Final beta-beta 2-matrix occupation numbers
                 ------------------------------------------------


 global array: g_momo2[1:19,1:19],  handle: -993 

            1           2           3           4           5           6  
       ----------- ----------- ----------- ----------- ----------- -----------
   1       0.00000     1.00000     1.00000     0.00000     0.00000     0.00000
   2       1.00000     0.00000     1.00000     0.00000     0.00000     0.00000
   3       1.00000     1.00000     0.00000     0.00000     0.00000     0.00000
   4       0.00000     0.00000     0.00000     0.00000     0.00000     0.00000
   5       0.00000     0.00000     0.00000     0.00000     0.00000     0.00000
   6       0.00000     0.00000     0.00000     0.00000     0.00000     0.00000
   7       0.00000     0.00000     0.00000     0.00000     0.00000     0.00000
   8       0.00000     0.00000     0.00000     0.00000     0.00000     0.00000
   9       0.00000     0.00000     0.00000     0.00000     0.00000     0.00000
  10       0.00000     0.00000     0.00000     0.00000     0.00000     0.00000
  11       0.00000     0.00000     0.00000     0.00000     0.00000     0.00000
  12       0.00000     0.00000     0.00000     0.00000     0.00000     0.00000
  13       0.00000     0.00000     0.00000     0.00000     0.00000     0.00000
  14       0.00000     0.00000     0.00000     0.00000     0.00000     0.00000
  15       0.00000     0.00000     0.00000     0.00000     0.00000     0.00000
  16       0.00000     0.00000     0.00000     0.00000     0.00000     0.00000
  17       0.00000     0.00000     0.00000     0.00000     0.00000     0.00000
  18       0.00000     0.00000     0.00000     0.00000     0.00000     0.00000
  19       0.00000     0.00000     0.00000     0.00000     0.00000     0.00000

            7           8           9          10          11          12  
       ----------- ----------- ----------- ----------- ----------- -----------
   1       0.00000     0.00000     0.00000     0.00000     0.00000     0.00000
   2       0.00000     0.00000     0.00000     0.00000     0.00000     0.00000
   3       0.00000     0.00000     0.00000     0.00000     0.00000     0.00000
   4       0.00000     0.00000     0.00000     0.00000     0.00000     0.00000
   5       0.00000     0.00000     0.00000     0.00000     0.00000     0.00000
   6       0.00000     0.00000     0.00000     0.00000     0.00000     0.00000
   7       0.00000     0.00000     0.00000     0.00000     0.00000     0.00000
   8       0.00000     0.00000     0.00000     0.00000     0.00000     0.00000
   9       0.00000     0.00000     0.00000     0.00000     0.00000     0.00000
  10       0.00000     0.00000     0.00000     0.00000     0.00000     0.00000
  11       0.00000     0.00000     0.00000     0.00000     0.00000     0.00000
  12       0.00000     0.00000     0.00000     0.00000     0.00000     0.00000
  13       0.00000     0.00000     0.00000     0.00000     0.00000     0.00000
  14       0.00000     0.00000     0.00000     0.00000     0.00000     0.00000
  15       0.00000     0.00000     0.00000     0.00000     0.00000     0.00000
  16       0.00000     0.00000     0.00000     0.00000     0.00000     0.00000
  17       0.00000     0.00000     0.00000     0.00000     0.00000     0.00000
  18       0.00000     0.00000     0.00000     0.00000     0.00000     0.00000
  19       0.00000     0.00000     0.00000     0.00000     0.00000     0.00000

           13          14          15          16          17          18  
       ----------- ----------- ----------- ----------- ----------- -----------
   1       0.00000     0.00000     0.00000     0.00000     0.00000     0.00000
   2       0.00000     0.00000     0.00000     0.00000     0.00000     0.00000
   3       0.00000     0.00000     0.00000     0.00000     0.00000     0.00000
   4       0.00000     0.00000     0.00000     0.00000     0.00000     0.00000
   5       0.00000     0.00000     0.00000     0.00000     0.00000     0.00000
   6       0.00000     0.00000     0.00000     0.00000     0.00000     0.00000
   7       0.00000     0.00000     0.00000     0.00000     0.00000     0.00000
   8       0.00000     0.00000     0.00000     0.00000     0.00000     0.00000
   9       0.00000     0.00000     0.00000     0.00000     0.00000     0.00000
  10       0.00000     0.00000     0.00000     0.00000     0.00000     0.00000
  11       0.00000     0.00000     0.00000     0.00000     0.00000     0.00000
  12       0.00000     0.00000     0.00000     0.00000     0.00000     0.00000
  13       0.00000     0.00000     0.00000     0.00000     0.00000     0.00000
  14       0.00000     0.00000     0.00000     0.00000     0.00000     0.00000
  15       0.00000     0.00000     0.00000     0.00000     0.00000     0.00000
  16       0.00000     0.00000     0.00000     0.00000     0.00000     0.00000
  17       0.00000     0.00000     0.00000     0.00000     0.00000     0.00000
  18       0.00000     0.00000     0.00000     0.00000     0.00000     0.00000
  19       0.00000     0.00000     0.00000     0.00000     0.00000     0.00000

           19  
       -----------
   1       0.00000
   2       0.00000
   3       0.00000
   4       0.00000
   5       0.00000
   6       0.00000
   7       0.00000
   8       0.00000
   9       0.00000
  10       0.00000
  11       0.00000
  12       0.00000
  13       0.00000
  14       0.00000
  15       0.00000
  16       0.00000
  17       0.00000
  18       0.00000
  19       0.00000

                  WFN1 Final alpha Correlation Function Analysis
                  ----------------------------------------------


 global array: Ca[1:19,1:19],  handle: -984 

            1           2           3           4           5           6  
       ----------- ----------- ----------- ----------- ----------- -----------
   1       1.00000     0.00000     0.00000     0.00000     0.00000     0.00000
   2       0.00000     1.00000     0.00000     0.00000     0.00000     0.00000
   3       0.00000     0.00000     1.00000     0.00000     0.00000     0.00000
   4       0.00000     0.00000     0.00000     0.00000     0.00000     0.00000
   5       0.00000     0.00000     0.00000     0.00000     0.00000     0.00000
   6       0.00000     0.00000     0.00000     1.00000     0.00000     0.00000
   7       0.00000     0.00000     0.00000     0.00000     0.00000     0.00000
   8       0.00000     0.00000     0.00000     0.00000     0.00000     0.00000
   9       0.00000     0.00000     0.00000     0.00000     0.00000     0.00000
  10       0.00000     0.00000     0.00000     0.00000     0.00000     0.00000
  11       0.00000     0.00000     0.00000     0.00000     0.00000     0.00000
  12       0.00000     0.00000     0.00000     0.00000     0.00000     0.00000
  13       0.00000     0.00000     0.00000     0.00000     0.00000     0.00000
  14       0.00000     0.00000     0.00000     0.00000     0.00000     0.00000
  15       0.00000     0.00000     0.00000     0.00000     0.00000     0.00000
  16       0.00000     0.00000     0.00000     0.00000     0.00000     0.00000
  17       0.00000     0.00000     0.00000     0.00000     0.00000     1.00000
  18       0.00000     0.00000     0.00000     0.00000     0.00000     0.00000
  19       0.00000     0.00000     0.00000     0.00000     1.00000     0.00000

            7           8           9          10          11          12  
       ----------- ----------- ----------- ----------- ----------- -----------
   1       0.00000     0.00000     0.00000     0.00000     0.00000     0.00000
   2       0.00000     0.00000     0.00000     0.00000     0.00000     0.00000
   3       0.00000     0.00000     0.00000     0.00000     0.00000     0.00000
   4       0.00000     0.00000     0.00000     0.00000     0.00000     0.00000
   5       0.00000     0.00000     0.00000     0.00000     0.00000     0.00000
   6       0.00000     0.00000     0.00000     0.00000     0.00000     0.00000
   7       0.00000     0.00000     0.00000     0.00000     0.00000     0.00000
   8       0.00000     0.00000     0.00000     1.00000     0.00000     0.00000
   9       0.00000     0.00000     0.00000     0.00000     0.00000     1.00000
  10       1.00000     0.00000     0.00000     0.00000     0.00000     0.00000
  11       0.00000     0.00000     0.00000     0.00000     0.00000     0.00000
  12       0.00000     1.00000     0.00000     0.00000     0.00000     0.00000
  13       0.00000     0.00000     0.00000     0.00000     0.00000     0.00000
  14       0.00000     0.00000     0.00000     0.00000     0.00000     0.00000
  15       0.00000     0.00000     0.00000     0.00000     1.00000     0.00000
  16       0.00000     0.00000     1.00000     0.00000     0.00000     0.00000
  17       0.00000     0.00000     0.00000     0.00000     0.00000     0.00000
  18       0.00000     0.00000     0.00000     0.00000     0.00000     0.00000
  19       0.00000     0.00000     0.00000     0.00000     0.00000     0.00000

           13          14          15          16          17          18  
       ----------- ----------- ----------- ----------- ----------- -----------
   1       0.00000     0.00000     0.00000     0.00000     0.00000     0.00000
   2       0.00000     0.00000     0.00000     0.00000     0.00000     0.00000
   3       0.00000     0.00000     0.00000     0.00000     0.00000     0.00000
   4       0.00000     0.00000     1.00000     0.00000     0.00000     0.00000
   5       0.00000     1.00000     0.00000     0.00000     0.00000     0.00000
   6       0.00000     0.00000     0.00000     0.00000     0.00000     0.00000
   7       0.00000     0.00000     0.00000     0.00000     0.00000     0.00000
   8       0.00000     0.00000     0.00000     0.00000     0.00000     0.00000
   9       0.00000     0.00000     0.00000     0.00000     0.00000     0.00000
  10       0.00000     0.00000     0.00000     0.00000     0.00000     0.00000
  11       0.00000     0.00000     0.00000     1.00000     0.00000     0.00000
  12       0.00000     0.00000     0.00000     0.00000     0.00000     0.00000
  13       0.00000     0.00000     0.00000     0.00000     0.00000     1.00000
  14       1.00000     0.00000     0.00000     0.00000     0.00000     0.00000
  15       0.00000     0.00000     0.00000     0.00000     0.00000     0.00000
  16       0.00000     0.00000     0.00000     0.00000     0.00000     0.00000
  17       0.00000     0.00000     0.00000     0.00000     0.00000     0.00000
  18       0.00000     0.00000     0.00000     0.00000     1.00000     0.00000
  19       0.00000     0.00000     0.00000     0.00000     0.00000     0.00000

           19  
       -----------
   1       0.00000
   2       0.00000
   3       0.00000
   4       0.00000
   5       0.00000
   6       0.00000
   7       1.00000
   8       0.00000
   9       0.00000
  10       0.00000
  11       0.00000
  12       0.00000
  13       0.00000
  14       0.00000
  15       0.00000
  16       0.00000
  17       0.00000
  18       0.00000
  19       0.00000

                   WFN1 Final beta Correlation Function Analysis
                   ---------------------------------------------


 global array: Cb[1:19,1:19],  handle: -983 

            1           2           3           4           5           6  
       ----------- ----------- ----------- ----------- ----------- -----------
   1       1.00000     0.00000     0.00000     0.00000     0.00000     0.00000
   2       0.00000     1.00000     0.00000     0.00000     0.00000     0.00000
   3       0.00000     0.00000     1.00000     0.00000     0.00000     0.00000
   4       0.00000     0.00000     0.00000     0.00000     0.00000     0.00000
   5       0.00000     0.00000     0.00000     0.00000     0.00000     0.00000
   6       0.00000     0.00000     0.00000     1.00000     0.00000     0.00000
   7       0.00000     0.00000     0.00000     0.00000     0.00000     0.00000
   8       0.00000     0.00000     0.00000     0.00000     0.00000     0.00000
   9       0.00000     0.00000     0.00000     0.00000     0.00000     0.00000
  10       0.00000     0.00000     0.00000     0.00000     0.00000     0.00000
  11       0.00000     0.00000     0.00000     0.00000     0.00000     0.00000
  12       0.00000     0.00000     0.00000     0.00000     0.00000     0.00000
  13       0.00000     0.00000     0.00000     0.00000     0.00000     0.00000
  14       0.00000     0.00000     0.00000     0.00000     0.00000     0.00000
  15       0.00000     0.00000     0.00000     0.00000     0.00000     0.00000
  16       0.00000     0.00000     0.00000     0.00000     0.00000     0.00000
  17       0.00000     0.00000     0.00000     0.00000     0.00000     1.00000
  18       0.00000     0.00000     0.00000     0.00000     0.00000     0.00000
  19       0.00000     0.00000     0.00000     0.00000     1.00000     0.00000

            7           8           9          10          11          12  
       ----------- ----------- ----------- ----------- ----------- -----------
   1       0.00000     0.00000     0.00000     0.00000     0.00000     0.00000
   2       0.00000     0.00000     0.00000     0.00000     0.00000     0.00000
   3       0.00000     0.00000     0.00000     0.00000     0.00000     0.00000
   4       0.00000     0.00000     0.00000     0.00000     0.00000     0.00000
   5       0.00000     0.00000     0.00000     0.00000     0.00000     0.00000
   6       0.00000     0.00000     0.00000     0.00000     0.00000     0.00000
   7       0.00000     0.00000     0.00000     0.00000     0.00000     0.00000
   8       0.00000     0.00000     0.00000     1.00000     0.00000     0.00000
   9       0.00000     0.00000     0.00000     0.00000     0.00000     1.00000
  10       1.00000     0.00000     0.00000     0.00000     0.00000     0.00000
  11       0.00000     0.00000     0.00000     0.00000     0.00000     0.00000
  12       0.00000     1.00000     0.00000     0.00000     0.00000     0.00000
  13       0.00000     0.00000     0.00000     0.00000     0.00000     0.00000
  14       0.00000     0.00000     0.00000     0.00000     0.00000     0.00000
  15       0.00000     0.00000     0.00000     0.00000     1.00000     0.00000
  16       0.00000     0.00000     1.00000     0.00000     0.00000     0.00000
  17       0.00000     0.00000     0.00000     0.00000     0.00000     0.00000
  18       0.00000     0.00000     0.00000     0.00000     0.00000     0.00000
  19       0.00000     0.00000     0.00000     0.00000     0.00000     0.00000

           13          14          15          16          17          18  
       ----------- ----------- ----------- ----------- ----------- -----------
   1       0.00000     0.00000     0.00000     0.00000     0.00000     0.00000
   2       0.00000     0.00000     0.00000     0.00000     0.00000     0.00000
   3       0.00000     0.00000     0.00000     0.00000     0.00000     0.00000
   4       0.00000     0.00000     1.00000     0.00000     0.00000     0.00000
   5       0.00000     1.00000     0.00000     0.00000     0.00000     0.00000
   6       0.00000     0.00000     0.00000     0.00000     0.00000     0.00000
   7       0.00000     0.00000     0.00000     0.00000     0.00000     0.00000
   8       0.00000     0.00000     0.00000     0.00000     0.00000     0.00000
   9       0.00000     0.00000     0.00000     0.00000     0.00000     0.00000
  10       0.00000     0.00000     0.00000     0.00000     0.00000     0.00000
  11       0.00000     0.00000     0.00000     1.00000     0.00000     0.00000
  12       0.00000     0.00000     0.00000     0.00000     0.00000     0.00000
  13       0.00000     0.00000     0.00000     0.00000     0.00000     1.00000
  14       1.00000     0.00000     0.00000     0.00000     0.00000     0.00000
  15       0.00000     0.00000     0.00000     0.00000     0.00000     0.00000
  16       0.00000     0.00000     0.00000     0.00000     0.00000     0.00000
  17       0.00000     0.00000     0.00000     0.00000     0.00000     0.00000
  18       0.00000     0.00000     0.00000     0.00000     1.00000     0.00000
  19       0.00000     0.00000     0.00000     0.00000     0.00000     0.00000

           19  
       -----------
   1       0.00000
   2       0.00000
   3       0.00000
   4       0.00000
   5       0.00000
   6       0.00000
   7       1.00000
   8       0.00000
   9       0.00000
  10       0.00000
  11       0.00000
  12       0.00000
  13       0.00000
  14       0.00000
  15       0.00000
  16       0.00000
  17       0.00000
  18       0.00000
  19       0.00000

                     WFN1 Final Alpha Natural Orbital Analysis
                     -----------------------------------------

 Vector    1  Occ=1.000000D+00  E=-4.672610D+00
              MO Center=  5.3D-17,  2.3D-17,  2.4D-13, r^2= 6.6D-02
   Bfn.  Coefficient  Atom+Function         Bfn.  Coefficient  Atom+Function  
  ----- ------------  ---------------      ----- ------------  ---------------
     1      0.997612  1 Be s          

 Vector    2  Occ=1.000000D+00  E=-4.863507D-01
              MO Center= -1.2D-15,  1.2D-15,  1.9D-12, r^2= 2.1D+00
   Bfn.  Coefficient  Atom+Function         Bfn.  Coefficient  Atom+Function  
  ----- ------------  ---------------      ----- ------------  ---------------
     6      0.249883  1 Be s                 17      0.242751  2 H  s          
    19      0.242751  3 H  s                  2      0.215317  1 Be s          
    16      0.197917  2 H  s                 18      0.197917  3 H  s          
     1     -0.181911  1 Be s                 15      0.077376  1 Be dzz        

 Vector    3  Occ=1.000000D+00  E=-4.440781D-01
              MO Center= -6.7D-16, -1.5D-16, -2.1D-12, r^2= 2.2D+00
   Bfn.  Coefficient  Atom+Function         Bfn.  Coefficient  Atom+Function  
  ----- ------------  ---------------      ----- ------------  ---------------
     5      0.386488  1 Be pz                16      0.230731  2 H  s          
    18     -0.230731  3 H  s                 17      0.217209  2 H  s          
    19     -0.217209  3 H  s                  9      0.141703  1 Be pz         

 Vector    4  Occ=0.000000D+00  E= 0.000000D+00
              MO Center=  7.0D-02,  1.8D-01,  2.9D-01, r^2= 2.0D+00
   Bfn.  Coefficient  Atom+Function         Bfn.  Coefficient  Atom+Function  
  ----- ------------  ---------------      ----- ------------  ---------------
     5      0.743619  1 Be pz                16     -0.663490  2 H  s          
    18      0.653760  3 H  s                 15     -0.532189  1 Be dzz        
     6      0.508576  1 Be s                 11      0.312472  1 Be dxy        
     9      0.287906  1 Be pz                 7      0.279887  1 Be px         
     3     -0.255675  1 Be px                12     -0.217327  1 Be dxz        

 Vector    5  Occ=0.000000D+00  E= 0.000000D+00
              MO Center=  1.4D-01,  1.1D-02,  5.0D-01, r^2= 2.0D+00
   Bfn.  Coefficient  Atom+Function         Bfn.  Coefficient  Atom+Function  
  ----- ------------  ---------------      ----- ------------  ---------------
    15      1.245165  1 Be dzz                2     -1.222212  1 Be s          
     5      0.990073  1 Be pz                13      0.596132  1 Be dyy        
     9     -0.439896  1 Be pz                 3      0.412549  1 Be px         
    10      0.393827  1 Be dxx               16     -0.343804  2 H  s          
    17     -0.331980  2 H  s                  7     -0.328092  1 Be px         

 Vector    6  Occ=0.000000D+00  E= 0.000000D+00
              MO Center= -1.4D-01, -1.8D-01, -1.2D-01, r^2= 3.9D+00
   Bfn.  Coefficient  Atom+Function         Bfn.  Coefficient  Atom+Function  
  ----- ------------  ---------------      ----- ------------  ---------------
     6      2.014348  1 Be s                 19     -1.137100  3 H  s          
    17     -1.095865  2 H  s                  2     -1.038090  1 Be s          
    15      0.619809  1 Be dzz               13      0.354922  1 Be dyy        
    18     -0.312709  3 H  s                 10      0.300912  1 Be dxx        
     9     -0.212824  1 Be pz                11     -0.166875  1 Be dxy        

 Vector    7  Occ=0.000000D+00  E= 0.000000D+00
              MO Center= -6.8D-02, -2.4D-03,  4.4D-03, r^2= 1.3D+00
   Bfn.  Coefficient  Atom+Function         Bfn.  Coefficient  Atom+Function  
  ----- ------------  ---------------      ----- ------------  ---------------
     2      6.232891  1 Be s                 10     -2.708457  1 Be dxx        
    15     -2.689321  1 Be dzz               13     -2.465905  1 Be dyy        
    19     -0.813822  3 H  s                 18      0.465923  3 H  s          
     9     -0.447400  1 Be pz                16      0.317730  2 H  s          
     3      0.293364  1 Be px                 1     -0.267024  1 Be s          

 Vector    8  Occ=0.000000D+00  E= 0.000000D+00
              MO Center=  4.8D-02, -3.0D-02, -6.3D-01, r^2= 2.7D+00
   Bfn.  Coefficient  Atom+Function         Bfn.  Coefficient  Atom+Function  
  ----- ------------  ---------------      ----- ------------  ---------------
    19      1.705051  3 H  s                  2      1.020305  1 Be s          
     6     -0.979700  1 Be s                 18     -0.833801  3 H  s          
    17     -0.643144  2 H  s                  9      0.591726  1 Be pz         
    14     -0.501985  1 Be dyz                5      0.424962  1 Be pz         
    11      0.400375  1 Be dxy                8      0.381161  1 Be py         

 Vector    9  Occ=0.000000D+00  E= 0.000000D+00
              MO Center= -1.7D-01,  1.7D-01, -1.7D-01, r^2= 2.1D+00
   Bfn.  Coefficient  Atom+Function         Bfn.  Coefficient  Atom+Function  
  ----- ------------  ---------------      ----- ------------  ---------------
     2     -1.979097  1 Be s                 19     -1.316458  3 H  s          
    13      1.207926  1 Be dyy                9     -1.064701  1 Be pz         
    17      0.929307  2 H  s                 15      0.588782  1 Be dzz        
    10      0.565031  1 Be dxx                3      0.490325  1 Be px         
    11      0.487853  1 Be dxy               18      0.427147  3 H  s          

 Vector   10  Occ=0.000000D+00  E= 0.000000D+00
              MO Center=  9.1D-02, -8.0D-02, -7.3D-01, r^2= 3.1D+00
   Bfn.  Coefficient  Atom+Function         Bfn.  Coefficient  Atom+Function  
  ----- ------------  ---------------      ----- ------------  ---------------
     9      1.314004  1 Be pz                17     -1.202501  2 H  s          
    11      0.822753  1 Be dxy                2      0.598335  1 Be s          
    15      0.516136  1 Be dzz               14     -0.407015  1 Be dyz        
     5     -0.384994  1 Be pz                13     -0.212281  1 Be dyy        
    18      0.104350  3 H  s                  8      0.095380  1 Be py         

 Vector   11  Occ=0.000000D+00  E= 0.000000D+00
              MO Center=  8.1D-02, -2.4D-01,  1.9D-02, r^2= 2.2D+00
   Bfn.  Coefficient  Atom+Function         Bfn.  Coefficient  Atom+Function  
  ----- ------------  ---------------      ----- ------------  ---------------
     2     -1.022702  1 Be s                 14     -0.822480  1 Be dyz        
     8     -0.669015  1 Be py                12      0.632870  1 Be dxz        
     4      0.613305  1 Be py                10      0.523144  1 Be dxx        
     6      0.498673  1 Be s                 16      0.431865  2 H  s          
    17     -0.363599  2 H  s                 18      0.358354  3 H  s          

 Vector   12  Occ=0.000000D+00  E= 0.000000D+00
              MO Center=  4.2D-02, -2.6D-01, -8.5D-02, r^2= 2.6D+00
   Bfn.  Coefficient  Atom+Function         Bfn.  Coefficient  Atom+Function  
  ----- ------------  ---------------      ----- ------------  ---------------
     9      1.475817  1 Be pz                17     -1.195523  2 H  s          
    19      0.984614  3 H  s                 11     -0.948062  1 Be dxy        
     3      0.678653  1 Be px                 7     -0.380251  1 Be px         
    14      0.333673  1 Be dyz               10      0.320913  1 Be dxx        
    16      0.308249  2 H  s                 12     -0.239511  1 Be dxz        

 Vector   13  Occ=0.000000D+00  E= 0.000000D+00
              MO Center=  7.4D-02, -6.6D-05,  8.4D-01, r^2= 2.4D+00
   Bfn.  Coefficient  Atom+Function         Bfn.  Coefficient  Atom+Function  
  ----- ------------  ---------------      ----- ------------  ---------------
    17      2.159318  2 H  s                 16     -1.105508  2 H  s          
     9     -0.981188  1 Be pz                 6     -0.829323  1 Be s          
    19     -0.724172  3 H  s                  2      0.694833  1 Be s          
    14     -0.569511  1 Be dyz                5     -0.436561  1 Be pz         
     3      0.375738  1 Be px                10     -0.370224  1 Be dxx        

 Vector   14  Occ=0.000000D+00  E= 0.000000D+00
              MO Center= -8.0D-02, -8.7D-02, -1.5D-01, r^2= 3.2D+00
   Bfn.  Coefficient  Atom+Function         Bfn.  Coefficient  Atom+Function  
  ----- ------------  ---------------      ----- ------------  ---------------
    19      1.886266  3 H  s                  9      1.766661  1 Be pz         
    17     -1.198272  2 H  s                 12      0.728686  1 Be dxz        
    14      0.727620  1 Be dyz               18     -0.539485  3 H  s          
    10     -0.401885  1 Be dxx               11      0.327432  1 Be dxy        
     8     -0.293778  1 Be py                13      0.282143  1 Be dyy        

 Vector   15  Occ=0.000000D+00  E= 0.000000D+00
              MO Center= -3.4D-02, -1.3D-01,  1.4D-01, r^2= 2.5D+00
   Bfn.  Coefficient  Atom+Function         Bfn.  Coefficient  Atom+Function  
  ----- ------------  ---------------      ----- ------------  ---------------
    12      1.041533  1 Be dxz               19     -0.878441  3 H  s          
     9     -0.778835  1 Be pz                 7      0.582697  1 Be px         
    14      0.497599  1 Be dyz               17      0.496544  2 H  s          
    13     -0.440397  1 Be dyy                2      0.353419  1 Be s          
    15      0.329447  1 Be dzz                3     -0.295830  1 Be px         

 Vector   16  Occ=0.000000D+00  E= 0.000000D+00
              MO Center= -2.0D-01,  2.3D-01, -3.9D-02, r^2= 2.8D+00
   Bfn.  Coefficient  Atom+Function         Bfn.  Coefficient  Atom+Function  
  ----- ------------  ---------------      ----- ------------  ---------------
     7      0.698030  1 Be px                11     -0.642642  1 Be dxy        
    17     -0.632027  2 H  s                  3     -0.620182  1 Be px         
     9      0.617365  1 Be pz                 4      0.511508  1 Be py         
     8     -0.493782  1 Be py                 2      0.485124  1 Be s          
    10     -0.484754  1 Be dxx               13      0.372466  1 Be dyy        

 Vector   17  Occ=0.000000D+00  E= 0.000000D+00
              MO Center=  1.8D-01,  4.0D-01,  2.1D-01, r^2= 3.0D+00
   Bfn.  Coefficient  Atom+Function         Bfn.  Coefficient  Atom+Function  
  ----- ------------  ---------------      ----- ------------  ---------------
     9     -0.874190  1 Be pz                 4      0.863223  1 Be py         
     2      0.826883  1 Be s                  8     -0.818047  1 Be py         
    17      0.802760  2 H  s                  6     -0.764675  1 Be s          
    14      0.656474  1 Be dyz               19     -0.494625  3 H  s          
    11      0.391024  1 Be dxy               12     -0.340690  1 Be dxz        

 Vector   18  Occ=0.000000D+00  E= 0.000000D+00
              MO Center= -1.4D-01, -2.2D-01, -1.8D-02, r^2= 2.3D+00
   Bfn.  Coefficient  Atom+Function         Bfn.  Coefficient  Atom+Function  
  ----- ------------  ---------------      ----- ------------  ---------------
     6      1.306575  1 Be s                  2     -0.903296  1 Be s          
    15      0.731878  1 Be dzz               10     -0.540997  1 Be dxx        
    12     -0.504295  1 Be dxz               13     -0.471917  1 Be dyy        
    18     -0.449158  3 H  s                  4      0.435631  1 Be py         
    17     -0.369556  2 H  s                 16     -0.304547  2 H  s          

 Vector   19  Occ=0.000000D+00  E= 0.000000D+00
              MO Center=  1.0D-01,  2.4D-01, -6.1D-02, r^2= 2.6D+00
   Bfn.  Coefficient  Atom+Function         Bfn.  Coefficient  Atom+Function  
  ----- ------------  ---------------      ----- ------------  ---------------
    13     -0.637554  1 Be dyy                7      0.576417  1 Be px         
    19      0.545191  3 H  s                  2      0.517498  1 Be s          
    18     -0.427827  3 H  s                  9      0.381147  1 Be pz         
    16     -0.366848  2 H  s                 12     -0.361537  1 Be dxz        
     6     -0.341442  1 Be s                  4     -0.335832  1 Be py         


                     WFN1 Final Beta Natural Orbital Analysis
                     ----------------------------------------

 Vector    1  Occ=1.000000D+00  E=-4.672610D+00
              MO Center=  5.3D-17,  2.3D-17,  2.4D-13, r^2= 6.6D-02
   Bfn.  Coefficient  Atom+Function         Bfn.  Coefficient  Atom+Function  
  ----- ------------  ---------------      ----- ------------  ---------------
     1      0.997612  1 Be s          

 Vector    2  Occ=1.000000D+00  E=-4.863507D-01
              MO Center= -1.2D-15,  1.2D-15,  1.9D-12, r^2= 2.1D+00
   Bfn.  Coefficient  Atom+Function         Bfn.  Coefficient  Atom+Function  
  ----- ------------  ---------------      ----- ------------  ---------------
     6      0.249883  1 Be s                 17      0.242751  2 H  s          
    19      0.242751  3 H  s                  2      0.215317  1 Be s          
    16      0.197917  2 H  s                 18      0.197917  3 H  s          
     1     -0.181911  1 Be s                 15      0.077376  1 Be dzz        

 Vector    3  Occ=1.000000D+00  E=-4.440781D-01
              MO Center= -6.7D-16, -1.5D-16, -2.1D-12, r^2= 2.2D+00
   Bfn.  Coefficient  Atom+Function         Bfn.  Coefficient  Atom+Function  
  ----- ------------  ---------------      ----- ------------  ---------------
     5      0.386488  1 Be pz                16      0.230731  2 H  s          
    18     -0.230731  3 H  s                 17      0.217209  2 H  s          
    19     -0.217209  3 H  s                  9      0.141703  1 Be pz         

 Vector    4  Occ=0.000000D+00  E= 0.000000D+00
              MO Center=  7.0D-02,  1.8D-01,  2.9D-01, r^2= 2.0D+00
   Bfn.  Coefficient  Atom+Function         Bfn.  Coefficient  Atom+Function  
  ----- ------------  ---------------      ----- ------------  ---------------
     5      0.743619  1 Be pz                16     -0.663490  2 H  s          
    18      0.653760  3 H  s                 15     -0.532189  1 Be dzz        
     6      0.508576  1 Be s                 11      0.312472  1 Be dxy        
     9      0.287906  1 Be pz                 7      0.279887  1 Be px         
     3     -0.255675  1 Be px                12     -0.217327  1 Be dxz        

 Vector    5  Occ=0.000000D+00  E= 0.000000D+00
              MO Center=  1.4D-01,  1.1D-02,  5.0D-01, r^2= 2.0D+00
   Bfn.  Coefficient  Atom+Function         Bfn.  Coefficient  Atom+Function  
  ----- ------------  ---------------      ----- ------------  ---------------
    15      1.245165  1 Be dzz                2     -1.222212  1 Be s          
     5      0.990073  1 Be pz                13      0.596132  1 Be dyy        
     9     -0.439896  1 Be pz                 3      0.412549  1 Be px         
    10      0.393827  1 Be dxx               16     -0.343804  2 H  s          
    17     -0.331980  2 H  s                  7     -0.328092  1 Be px         

 Vector    6  Occ=0.000000D+00  E= 0.000000D+00
              MO Center= -1.4D-01, -1.8D-01, -1.2D-01, r^2= 3.9D+00
   Bfn.  Coefficient  Atom+Function         Bfn.  Coefficient  Atom+Function  
  ----- ------------  ---------------      ----- ------------  ---------------
     6      2.014348  1 Be s                 19     -1.137100  3 H  s          
    17     -1.095865  2 H  s                  2     -1.038090  1 Be s          
    15      0.619809  1 Be dzz               13      0.354922  1 Be dyy        
    18     -0.312709  3 H  s                 10      0.300912  1 Be dxx        
     9     -0.212824  1 Be pz                11     -0.166875  1 Be dxy        

 Vector    7  Occ=0.000000D+00  E= 0.000000D+00
              MO Center= -6.8D-02, -2.4D-03,  4.4D-03, r^2= 1.3D+00
   Bfn.  Coefficient  Atom+Function         Bfn.  Coefficient  Atom+Function  
  ----- ------------  ---------------      ----- ------------  ---------------
     2      6.232891  1 Be s                 10     -2.708457  1 Be dxx        
    15     -2.689321  1 Be dzz               13     -2.465905  1 Be dyy        
    19     -0.813822  3 H  s                 18      0.465923  3 H  s          
     9     -0.447400  1 Be pz                16      0.317730  2 H  s          
     3      0.293364  1 Be px                 1     -0.267024  1 Be s          

 Vector    8  Occ=0.000000D+00  E= 0.000000D+00
              MO Center=  4.8D-02, -3.0D-02, -6.3D-01, r^2= 2.7D+00
   Bfn.  Coefficient  Atom+Function         Bfn.  Coefficient  Atom+Function  
  ----- ------------  ---------------      ----- ------------  ---------------
    19      1.705051  3 H  s                  2      1.020305  1 Be s          
     6     -0.979700  1 Be s                 18     -0.833801  3 H  s          
    17     -0.643144  2 H  s                  9      0.591726  1 Be pz         
    14     -0.501985  1 Be dyz                5      0.424962  1 Be pz         
    11      0.400375  1 Be dxy                8      0.381161  1 Be py         

 Vector    9  Occ=0.000000D+00  E= 0.000000D+00
              MO Center= -1.7D-01,  1.7D-01, -1.7D-01, r^2= 2.1D+00
   Bfn.  Coefficient  Atom+Function         Bfn.  Coefficient  Atom+Function  
  ----- ------------  ---------------      ----- ------------  ---------------
     2     -1.979097  1 Be s                 19     -1.316458  3 H  s          
    13      1.207926  1 Be dyy                9     -1.064701  1 Be pz         
    17      0.929307  2 H  s                 15      0.588782  1 Be dzz        
    10      0.565031  1 Be dxx                3      0.490325  1 Be px         
    11      0.487853  1 Be dxy               18      0.427147  3 H  s          

 Vector   10  Occ=0.000000D+00  E= 0.000000D+00
              MO Center=  9.1D-02, -8.0D-02, -7.3D-01, r^2= 3.1D+00
   Bfn.  Coefficient  Atom+Function         Bfn.  Coefficient  Atom+Function  
  ----- ------------  ---------------      ----- ------------  ---------------
     9      1.314004  1 Be pz                17     -1.202501  2 H  s          
    11      0.822753  1 Be dxy                2      0.598335  1 Be s          
    15      0.516136  1 Be dzz               14     -0.407015  1 Be dyz        
     5     -0.384994  1 Be pz                13     -0.212281  1 Be dyy        
    18      0.104350  3 H  s                  8      0.095380  1 Be py         

 Vector   11  Occ=0.000000D+00  E= 0.000000D+00
              MO Center=  8.1D-02, -2.4D-01,  1.9D-02, r^2= 2.2D+00
   Bfn.  Coefficient  Atom+Function         Bfn.  Coefficient  Atom+Function  
  ----- ------------  ---------------      ----- ------------  ---------------
     2     -1.022702  1 Be s                 14     -0.822480  1 Be dyz        
     8     -0.669015  1 Be py                12      0.632870  1 Be dxz        
     4      0.613305  1 Be py                10      0.523144  1 Be dxx        
     6      0.498673  1 Be s                 16      0.431865  2 H  s          
    17     -0.363599  2 H  s                 18      0.358354  3 H  s          

 Vector   12  Occ=0.000000D+00  E= 0.000000D+00
              MO Center=  4.2D-02, -2.6D-01, -8.5D-02, r^2= 2.6D+00
   Bfn.  Coefficient  Atom+Function         Bfn.  Coefficient  Atom+Function  
  ----- ------------  ---------------      ----- ------------  ---------------
     9      1.475817  1 Be pz                17     -1.195523  2 H  s          
    19      0.984614  3 H  s                 11     -0.948062  1 Be dxy        
     3      0.678653  1 Be px                 7     -0.380251  1 Be px         
    14      0.333673  1 Be dyz               10      0.320913  1 Be dxx        
    16      0.308249  2 H  s                 12     -0.239511  1 Be dxz        

 Vector   13  Occ=0.000000D+00  E= 0.000000D+00
              MO Center=  7.4D-02, -6.6D-05,  8.4D-01, r^2= 2.4D+00
   Bfn.  Coefficient  Atom+Function         Bfn.  Coefficient  Atom+Function  
  ----- ------------  ---------------      ----- ------------  ---------------
    17      2.159318  2 H  s                 16     -1.105508  2 H  s          
     9     -0.981188  1 Be pz                 6     -0.829323  1 Be s          
    19     -0.724172  3 H  s                  2      0.694833  1 Be s          
    14     -0.569511  1 Be dyz                5     -0.436561  1 Be pz         
     3      0.375738  1 Be px                10     -0.370224  1 Be dxx        

 Vector   14  Occ=0.000000D+00  E= 0.000000D+00
              MO Center= -8.0D-02, -8.7D-02, -1.5D-01, r^2= 3.2D+00
   Bfn.  Coefficient  Atom+Function         Bfn.  Coefficient  Atom+Function  
  ----- ------------  ---------------      ----- ------------  ---------------
    19      1.886266  3 H  s                  9      1.766661  1 Be pz         
    17     -1.198272  2 H  s                 12      0.728686  1 Be dxz        
    14      0.727620  1 Be dyz               18     -0.539485  3 H  s          
    10     -0.401885  1 Be dxx               11      0.327432  1 Be dxy        
     8     -0.293778  1 Be py                13      0.282143  1 Be dyy        

 Vector   15  Occ=0.000000D+00  E= 0.000000D+00
              MO Center= -3.4D-02, -1.3D-01,  1.4D-01, r^2= 2.5D+00
   Bfn.  Coefficient  Atom+Function         Bfn.  Coefficient  Atom+Function  
  ----- ------------  ---------------      ----- ------------  ---------------
    12      1.041533  1 Be dxz               19     -0.878441  3 H  s          
     9     -0.778835  1 Be pz                 7      0.582697  1 Be px         
    14      0.497599  1 Be dyz               17      0.496544  2 H  s          
    13     -0.440397  1 Be dyy                2      0.353419  1 Be s          
    15      0.329447  1 Be dzz                3     -0.295830  1 Be px         

 Vector   16  Occ=0.000000D+00  E= 0.000000D+00
              MO Center= -2.0D-01,  2.3D-01, -3.9D-02, r^2= 2.8D+00
   Bfn.  Coefficient  Atom+Function         Bfn.  Coefficient  Atom+Function  
  ----- ------------  ---------------      ----- ------------  ---------------
     7      0.698030  1 Be px                11     -0.642642  1 Be dxy        
    17     -0.632027  2 H  s                  3     -0.620182  1 Be px         
     9      0.617365  1 Be pz                 4      0.511508  1 Be py         
     8     -0.493782  1 Be py                 2      0.485124  1 Be s          
    10     -0.484754  1 Be dxx               13      0.372466  1 Be dyy        

 Vector   17  Occ=0.000000D+00  E= 0.000000D+00
              MO Center=  1.8D-01,  4.0D-01,  2.1D-01, r^2= 3.0D+00
   Bfn.  Coefficient  Atom+Function         Bfn.  Coefficient  Atom+Function  
  ----- ------------  ---------------      ----- ------------  ---------------
     9     -0.874190  1 Be pz                 4      0.863223  1 Be py         
     2      0.826883  1 Be s                  8     -0.818047  1 Be py         
    17      0.802760  2 H  s                  6     -0.764675  1 Be s          
    14      0.656474  1 Be dyz               19     -0.494625  3 H  s          
    11      0.391024  1 Be dxy               12     -0.340690  1 Be dxz        

 Vector   18  Occ=0.000000D+00  E= 0.000000D+00
              MO Center= -1.4D-01, -2.2D-01, -1.8D-02, r^2= 2.3D+00
   Bfn.  Coefficient  Atom+Function         Bfn.  Coefficient  Atom+Function  
  ----- ------------  ---------------      ----- ------------  ---------------
     6      1.306575  1 Be s                  2     -0.903296  1 Be s          
    15      0.731878  1 Be dzz               10     -0.540997  1 Be dxx        
    12     -0.504295  1 Be dxz               13     -0.471917  1 Be dyy        
    18     -0.449158  3 H  s                  4      0.435631  1 Be py         
    17     -0.369556  2 H  s                 16     -0.304547  2 H  s          

 Vector   19  Occ=0.000000D+00  E= 0.000000D+00
              MO Center=  1.0D-01,  2.4D-01, -6.1D-02, r^2= 2.6D+00
   Bfn.  Coefficient  Atom+Function         Bfn.  Coefficient  Atom+Function  
  ----- ------------  ---------------      ----- ------------  ---------------
    13     -0.637554  1 Be dyy                7      0.576417  1 Be px         
    19      0.545191  3 H  s                  2      0.517498  1 Be s          
    18     -0.427827  3 H  s                  9      0.381147  1 Be pz         
    16     -0.366848  2 H  s                 12     -0.361537  1 Be dxz        
     6     -0.341442  1 Be s                  4     -0.335832  1 Be py         


 Task  times  cpu:      217.2s     wall:      238.8s


                                NWChem Input Module
                                -------------------



                                NWChem WFN1 Module
                                ------------------



      Superposition of Atomic Density Guess
      -------------------------------------

 Sum of atomic energies:         -15.56322911

      Non-variational initial energy
      ------------------------------

 Total energy =     -15.617629
 1-e energy   =     -26.606648
 2-e energy   =       7.626014
 HOMO         =      -0.343580
 LUMO         =       0.058684

 iteration              energy           error          err Na          err Nb          err Ca          err Cb
 ---------              ------           -----          ------          ------          ------          ------
         1        -15.58908230       14.759072        0.003155        0.003155        7.376381        7.376381
         2        -15.59887386       14.907119        0.054734        0.054734        7.398826        7.398826
         3        -15.68593604        8.011059        0.056313        0.056313        3.949217        3.949217
         4        -15.68845839        7.899305        0.001765        0.001765        3.947887        3.947887
         5        -15.71279569        3.743377        0.001778        0.001778        1.869910        1.869910
         6        -15.71341139        3.759691        0.008629        0.008629        1.871217        1.871217
         7        -15.72589437        2.135884        0.008726        0.008726        1.059216        1.059216
         8        -15.72633562        2.122747        0.002273        0.002273        1.059101        1.059101
         9        -15.73400430        1.160984        0.002288        0.002288        0.578204        0.578204
        10        -15.73422555        1.163540        0.003384        0.003384        0.578386        0.578386
        11        -15.73952376        0.851644        0.003409        0.003409        0.422414        0.422414
        12        -15.73974081        0.850501        0.002829        0.002829        0.422421        0.422421
        13        -15.74360027        0.674010        0.002843        0.002843        0.334162        0.334162
        14        -15.74372062        0.670801        0.001191        0.001191        0.334210        0.334210
        15        -15.74670185        0.587743        0.001197        0.001197        0.292674        0.292674
        16        -15.74684502        0.593023        0.003812        0.003812        0.292700        0.292700
        17        -15.74919097        0.530358        0.003826        0.003826        0.261353        0.261353
        18        -15.74927063        0.523284        0.000282        0.000282        0.261360        0.261360
        19        -15.75117264        0.478427        0.000283        0.000283        0.238930        0.238930
        20        -15.75129903        0.488399        0.005238        0.005238        0.238961        0.238961
        21        -15.75286223        0.444043        0.005253        0.005253        0.216768        0.216768
        22        -15.75292392        0.433550        0.000017        0.000017        0.216758        0.216758
        23        -15.75423358        0.395420        0.000017        0.000017        0.197693        0.197693
        24        -15.75439827        0.396606        0.000605        0.000605        0.197697        0.197697
        25        -15.75550352        0.355919        0.000606        0.000606        0.177354        0.177354
        26        -15.75551166        0.354756        0.000020        0.000020        0.177358        0.177358
        27        -15.75646581        0.320168        0.000019        0.000019        0.160065        0.160065
        28        -15.75651089        0.324943        0.002414        0.002414        0.160058        0.160058
        29        -15.75733833        0.289273        0.002418        0.002418        0.142218        0.142218
        30        -15.75735649        0.284435        0.000021        0.000021        0.142197        0.142197
        31        -15.75808213        0.255896        0.000021        0.000021        0.127927        0.127927
        32        -15.75809628        0.256990        0.000676        0.000676        0.127819        0.127819
        33        -15.75874001        0.229293        0.000678        0.000678        0.113969        0.113969
        34        -15.75875491        0.228443        0.000268        0.000268        0.113954        0.113954
        35        -15.75932587        0.207862        0.000268        0.000268        0.103663        0.103663
        36        -15.75932831        0.207324        0.000005        0.000005        0.103657        0.103657
        37        -15.75983786        0.188930        0.000005        0.000005        0.094460        0.094460
        38        -15.75990822        0.200041        0.005844        0.005844        0.094177        0.094177
        39        -15.76036766        0.187671        0.005850        0.005850        0.087986        0.087986
        40        -15.76040183        0.176024        0.000040        0.000040        0.087972        0.087972
        41        -15.76081157        0.166844        0.000040        0.000040        0.083382        0.083382
        42        -15.76081739        0.167487        0.000349        0.000349        0.083394        0.083394
        43        -15.76118655        0.162697        0.000350        0.000350        0.080999        0.080999
        44        -15.76119510        0.162626        0.000319        0.000319        0.080994        0.080994
        45        -15.76152882        0.161711        0.000319        0.000319        0.080537        0.080537
        46        -15.76153030        0.161080        0.000006        0.000006        0.080534        0.080534
        47        -15.76183340        0.163143        0.000005        0.000005        0.081566        0.081566
        48        -15.76185074        0.167384        0.002182        0.002182        0.081510        0.081510
        49        -15.76212662        0.173779        0.002185        0.002185        0.084704        0.084704
        50        -15.76214621        0.169748        0.000179        0.000179        0.084695        0.084695
        51        -15.76239690        0.177622        0.000179        0.000179        0.088632        0.088632
        52        -15.76239784        0.177261        0.000001        0.000001        0.088629        0.088629
        53        -15.76262748        0.189497        0.000001        0.000001        0.094747        0.094747
        54        -15.76266359        0.189119        0.000012        0.000012        0.094547        0.094547
        55        -15.76287406        0.201013        0.000012        0.000012        0.100495        0.100495
        56        -15.76289320        0.201021        0.000037        0.000037        0.100474        0.100474
        57        -15.76308670        0.216344        0.000037        0.000037        0.108135        0.108135
        58        -15.76309376        0.216370        0.000052        0.000052        0.108133        0.108133
        59        -15.76327196        0.229327        0.000052        0.000052        0.114611        0.114611
        60        -15.76327339        0.229272        0.000024        0.000024        0.114611        0.114611
        61        -15.76343801        0.243613        0.000024        0.000024        0.121782        0.121782
        62        -15.76344345        0.245052        0.000757        0.000757        0.121769        0.121769
        63        -15.76359565        0.255200        0.000757        0.000757        0.126843        0.126843
        64        -15.76359755        0.253763        0.000042        0.000042        0.126840        0.126840
        65        -15.76373860        0.262703        0.000042        0.000042        0.131309        0.131309
        66        -15.76373905        0.262630        0.000012        0.000012        0.131303        0.131303
        67        -15.76387014        0.266793        0.000012        0.000012        0.133384        0.133384
        68        -15.76387636        0.269301        0.001326        0.001326        0.133325        0.133325
        69        -15.76399842        0.270329        0.001326        0.001326        0.133838        0.133838
        70        -15.76400126        0.267807        0.000070        0.000070        0.133834        0.133834
        71        -15.76411487        0.265181        0.000070        0.000070        0.132521        0.132521
        72        -15.76411510        0.265035        0.000001        0.000001        0.132517        0.132517
        73        -15.76422119        0.258710        0.000001        0.000001        0.129354        0.129354
        74        -15.76427223        0.258227        0.000614        0.000614        0.128500        0.128500
        75        -15.76437118        0.250334        0.000614        0.000614        0.124553        0.124553
        76        -15.76439454        0.249584        0.000197        0.000197        0.124595        0.124595
        77        -15.76448658        0.238285        0.000197        0.000197        0.118946        0.118946
        78        -15.76448947        0.238124        0.000085        0.000085        0.118977        0.118977
        79        -15.76457562        0.226933        0.000085        0.000085        0.113381        0.113381
        80        -15.76458063        0.228107        0.000634        0.000634        0.113420        0.113420
        81        -15.76466104        0.213865        0.000634        0.000634        0.106298        0.106298
        82        -15.76466209        0.212691        0.000046        0.000046        0.106300        0.106300
        83        -15.76473763        0.199588        0.000046        0.000046        0.099748        0.099748
        84        -15.76473786        0.199505        0.000003        0.000003        0.099750        0.099750
        85        -15.76480892        0.183672        0.000003        0.000003        0.091833        0.091833
        86        -15.76481429        0.185261        0.000798        0.000798        0.091832        0.091832
        87        -15.76488068        0.171380        0.000798        0.000798        0.084892        0.084892
        88        -15.76488162        0.169952        0.000088        0.000088        0.084888        0.084888
        89        -15.76494421        0.153719        0.000088        0.000088        0.076772        0.076772
        90        -15.76494427        0.153583        0.000021        0.000021        0.076770        0.076770
        91        -15.76500341        0.140041        0.000021        0.000021        0.069999        0.069999
        92        -15.76500354        0.139999        0.000005        0.000005        0.069995        0.069995
        93        -15.76505951        0.124849        0.000005        0.000005        0.062420        0.062420
        94        -15.76506227        0.125961        0.000593        0.000593        0.062388        0.062388
        95        -15.76511544        0.113887        0.000593        0.000593        0.056351        0.056351
        96        -15.76511594        0.112881        0.000091        0.000091        0.056350        0.056350
        97        -15.76516629        0.100000        0.000091        0.000091        0.049909        0.049909
        98        -15.76516631        0.099900        0.000041        0.000041        0.049909        0.049909
        99        -15.76521390        0.090522        0.000041        0.000041        0.045220        0.045220
       100        -15.76521391        0.090473        0.000017        0.000017        0.045220        0.045220
       101        -15.76526058        0.079680        0.000017        0.000017        0.039823        0.039823
       102        -15.76526061        0.079646        0.000000        0.000000        0.039823        0.039823
       103        -15.76530334        0.071592        0.000000        0.000000        0.035796        0.035796
       104        -15.76534412        0.065046        0.000000        0.000000        0.032523        0.032523
       105        -15.76538275        0.058527        0.000000        0.000000        0.029263        0.029263
       106        -15.76542070        0.054192        0.000000        0.000000        0.027096        0.027096
       107        -15.76545592        0.049975        0.000000        0.000000        0.024987        0.024987
       108        -15.76548952        0.046884        0.000000        0.000000        0.023442        0.023442
       109        -15.76552160        0.044097        0.000000        0.000000        0.022048        0.022048
[...]
     2      2.120755  1 Be s                  6     -1.681991  1 Be s          
    19     -0.189560  3 H  s                 17     -0.186935  2 H  s          
    13     -0.091400  1 Be dyy               10     -0.075854  1 Be dxx        
    18      0.050611  3 H  s                 16      0.049152  2 H  s          

 Vector    9  Occ=9.774813D-16  E= 1.633659D-16
              MO Center=  5.9D-06,  3.0D-03, -4.3D-04, r^2= 3.7D+00
   Bfn.  Coefficient  Atom+Function         Bfn.  Coefficient  Atom+Function  
  ----- ------------  ---------------      ----- ------------  ---------------
     3      1.140589  1 Be px                 7     -1.074055  1 Be px         
     4      0.544023  1 Be py                 8     -0.509920  1 Be py         

 Vector   10  Occ=8.638584D-16  E= 1.442472D-16
              MO Center=  1.1D-04,  8.1D-05,  1.1D-05, r^2= 3.6D+00
   Bfn.  Coefficient  Atom+Function         Bfn.  Coefficient  Atom+Function  
  ----- ------------  ---------------      ----- ------------  ---------------
     4     -1.145538  1 Be py                 8      1.067257  1 Be py         
     3      0.544355  1 Be px                 7     -0.509520  1 Be px         

 Vector   11  Occ=3.754289D-20  E= 9.784370D-21
              MO Center= -7.6D-05, -2.4D-06, -9.6D-05, r^2= 3.1D+00
   Bfn.  Coefficient  Atom+Function         Bfn.  Coefficient  Atom+Function  
  ----- ------------  ---------------      ----- ------------  ---------------
    17     -1.975224  2 H  s                 19      1.975289  3 H  s          
     9      1.448749  1 Be pz                 5      1.387149  1 Be pz         

 Vector   12  Occ=1.624046D-22  E= 1.028298D-22
              MO Center= -2.8D-05, -5.9D-05,  5.2D-04, r^2= 3.3D+00
   Bfn.  Coefficient  Atom+Function         Bfn.  Coefficient  Atom+Function  
  ----- ------------  ---------------      ----- ------------  ---------------
     6      1.688258  1 Be s                 17     -1.375186  2 H  s          
    19     -1.373862  3 H  s                 15      0.708516  1 Be dzz        
    16      0.550958  2 H  s                 18      0.550426  3 H  s          
     2     -0.472750  1 Be s                 13     -0.300170  1 Be dyy        
    10     -0.293822  1 Be dxx                1      0.045423  1 Be s          

 Vector   13  Occ=5.679295D-24  E= 3.932719D-24
              MO Center= -1.3D-04, -1.4D-03,  1.5D-03, r^2= 1.2D+00
   Bfn.  Coefficient  Atom+Function         Bfn.  Coefficient  Atom+Function  
  ----- ------------  ---------------      ----- ------------  ---------------
    14     -1.239506  1 Be dyz               11      0.891071  1 Be dxy        
    12     -0.697205  1 Be dxz               10     -0.237317  1 Be dxx        
    13      0.190512  1 Be dyy                2      0.050577  1 Be s          

 Vector   14  Occ=1.120678D-23  E= 7.598760D-24
              MO Center= -2.3D-04,  8.8D-05, -1.5D-04, r^2= 1.2D+00
   Bfn.  Coefficient  Atom+Function         Bfn.  Coefficient  Atom+Function  
  ----- ------------  ---------------      ----- ------------  ---------------
    12     -1.554856  1 Be dxz               14      0.743942  1 Be dyz        
    11     -0.130985  1 Be dxy               13     -0.082211  1 Be dyy        
     2      0.079998  1 Be s                 15     -0.042408  1 Be dzz        

 Vector   15  Occ=6.407355D-27  E= 4.634259D-27
              MO Center= -2.5D-04, -5.7D-05, -7.5D-06, r^2= 1.2D+00
   Bfn.  Coefficient  Atom+Function         Bfn.  Coefficient  Atom+Function  
  ----- ------------  ---------------      ----- ------------  ---------------
    11      0.858241  1 Be dxy               10      0.753193  1 Be dxx        
    13     -0.748552  1 Be dyy               14      0.064519  1 Be dyz        
    12      0.060700  1 Be dxz                2     -0.028319  1 Be s          

 Vector   16  Occ=2.072226D-23  E= 1.470950D-23
              MO Center=  7.5D-05, -1.9D-03, -8.7D-04, r^2= 1.2D+00
   Bfn.  Coefficient  Atom+Function         Bfn.  Coefficient  Atom+Function  
  ----- ------------  ---------------      ----- ------------  ---------------
    11      1.204329  1 Be dxy               14      0.951345  1 Be dyz        
    13      0.453392  1 Be dyy               12      0.302406  1 Be dxz        
    10     -0.288107  1 Be dxx                2     -0.211489  1 Be s          
    15      0.101964  1 Be dzz                6      0.027590  1 Be s          

 Vector   17  Occ=5.909757D-25  E= 6.604896D-25
              MO Center=  4.8D-04,  2.3D-04, -4.6D-04, r^2= 3.3D+00
   Bfn.  Coefficient  Atom+Function         Bfn.  Coefficient  Atom+Function  
  ----- ------------  ---------------      ----- ------------  ---------------
    17     -2.099606  2 H  s                 19      2.100234  3 H  s          
     9      1.862140  1 Be pz                16      1.081004  2 H  s          
    18     -1.081624  3 H  s                  5     -0.283855  1 Be pz         

 Vector   18  Occ=1.399967D-12  E= 1.992155D-12
              MO Center= -1.8D-06, -2.1D-08, -3.7D-05, r^2= 1.7D+00
   Bfn.  Coefficient  Atom+Function         Bfn.  Coefficient  Atom+Function  
  ----- ------------  ---------------      ----- ------------  ---------------
    15     -0.982143  1 Be dzz               16      0.972568  2 H  s          
    18      0.972590  3 H  s                 10      0.774463  1 Be dxx        
    13      0.774922  1 Be dyy                2     -0.734290  1 Be s          
    17     -0.354411  2 H  s                 19     -0.354319  3 H  s          
     6      0.131703  1 Be s                  1      0.094035  1 Be s          

 Vector   19  Occ=2.778452D-11  E= 5.847608D-11
              MO Center=  1.0D-04,  2.8D-05,  2.0D-04, r^2= 9.3D-01
   Bfn.  Coefficient  Atom+Function         Bfn.  Coefficient  Atom+Function  
  ----- ------------  ---------------      ----- ------------  ---------------
     2     -6.717332  1 Be s                 15      3.086571  1 Be dzz        
    10      2.790954  1 Be dxx               13      2.771391  1 Be dyy        
     6      0.338643  1 Be s                  1      0.298422  1 Be s          
    16     -0.279729  2 H  s                 18     -0.278079  3 H  s          
    17      0.153171  2 H  s                 19      0.150558  3 H  s          


                     WFN1 Final Beta Natural Orbital Analysis
                     ----------------------------------------

 Vector    1  Occ=1.000000D+00  E=-4.673810D+00
              MO Center=  1.4D-17, -9.0D-18,  3.3D-06, r^2= 6.6D-02
   Bfn.  Coefficient  Atom+Function         Bfn.  Coefficient  Atom+Function  
  ----- ------------  ---------------      ----- ------------  ---------------
     1     -0.997584  1 Be s          

 Vector    2  Occ=1.000000D+00  E=-4.874415D-01
              MO Center=  8.3D-16, -4.5D-16,  2.5D-04, r^2= 2.1D+00
   Bfn.  Coefficient  Atom+Function         Bfn.  Coefficient  Atom+Function  
  ----- ------------  ---------------      ----- ------------  ---------------
     6     -0.249028  1 Be s                 17     -0.242623  2 H  s          
    19     -0.242574  3 H  s                  2     -0.215428  1 Be s          
    16     -0.198866  2 H  s                 18     -0.198813  3 H  s          
     1      0.181854  1 Be s                 15     -0.077332  1 Be dzz        

 Vector    3  Occ=9.678704D-01  E=-4.328654D-01
              MO Center= -5.7D-15,  9.9D-15, -2.5D-04, r^2= 2.2D+00
   Bfn.  Coefficient  Atom+Function         Bfn.  Coefficient  Atom+Function  
  ----- ------------  ---------------      ----- ------------  ---------------
     5      0.385758  1 Be pz                16      0.232034  2 H  s          
    18     -0.232080  3 H  s                 17      0.219433  2 H  s          
    19     -0.219490  3 H  s                  9      0.137346  1 Be pz         

 Vector    4  Occ=1.710003D-02  E=-3.243159D-03
              MO Center=  8.1D-15,  8.0D-16, -1.7D-05, r^2= 2.8D+00
   Bfn.  Coefficient  Atom+Function         Bfn.  Coefficient  Atom+Function  
  ----- ------------  ---------------      ----- ------------  ---------------
     7     -0.609476  1 Be px                 3     -0.447889  1 Be px         
     8     -0.157546  1 Be py                 4     -0.115778  1 Be py         

 Vector    5  Occ=1.502957D-02  E=-2.850891D-03
              MO Center= -3.0D-15,  1.3D-14, -2.0D-05, r^2= 2.8D+00
   Bfn.  Coefficient  Atom+Function         Bfn.  Coefficient  Atom+Function  
  ----- ------------  ---------------      ----- ------------  ---------------
     8     -0.621849  1 Be py                 4     -0.434679  1 Be py         
     7      0.160751  1 Be px                 3      0.112357  1 Be px         

 Vector    6  Occ=1.307314D-09  E=-7.236106D-11
              MO Center=  1.4D-09,  4.9D-11,  4.4D-05, r^2= 3.5D+00
   Bfn.  Coefficient  Atom+Function         Bfn.  Coefficient  Atom+Function  
  ----- ------------  ---------------      ----- ------------  ---------------
     6      1.753317  1 Be s                 17     -0.987664  2 H  s          
    19     -0.987588  3 H  s                 16     -0.166119  2 H  s          
    18     -0.166053  3 H  s                  1     -0.121803  1 Be s          
    10      0.037890  1 Be dxx               13      0.037603  1 Be dyy        

 Vector    7  Occ=2.641921D-11  E= 1.829667D-12
              MO Center=  1.2D-06, -7.2D-07,  1.2D-04, r^2= 6.3D+00
   Bfn.  Coefficient  Atom+Function         Bfn.  Coefficient  Atom+Function  
  ----- ------------  ---------------      ----- ------------  ---------------
     9      2.552782  1 Be pz                17     -1.354758  2 H  s          
    19      1.355069  3 H  s                  5     -0.434398  1 Be pz         
    16     -0.083314  2 H  s                 18      0.083206  3 H  s          

 Vector    8  Occ=3.057431D-14  E= 4.579645D-15
              MO Center= -5.3D-05, -2.3D-05, -3.1D-04, r^2= 3.8D+00
   Bfn.  Coefficient  Atom+Function         Bfn.  Coefficient  Atom+Function  
  ----- ------------  ---------------      ----- ------------  ---------------
     2      2.120755  1 Be s                  6     -1.681991  1 Be s          
    19     -0.189560  3 H  s                 17     -0.186935  2 H  s          
    13     -0.091400  1 Be dyy               10     -0.075854  1 Be dxx        
    18      0.050611  3 H  s                 16      0.049152  2 H  s          

 Vector    9  Occ=9.774813D-16  E= 1.633659D-16
              MO Center=  5.9D-06,  3.0D-03, -4.3D-04, r^2= 3.7D+00
   Bfn.  Coefficient  Atom+Function         Bfn.  Coefficient  Atom+Function  
  ----- ------------  ---------------      ----- ------------  ---------------
     3      1.140589  1 Be px                 7     -1.074055  1 Be px         
     4      0.544023  1 Be py                 8     -0.509920  1 Be py         

 Vector   10  Occ=8.638584D-16  E= 1.442472D-16
              MO Center=  1.1D-04,  8.1D-05,  1.1D-05, r^2= 3.6D+00
   Bfn.  Coefficient  Atom+Function         Bfn.  Coefficient  Atom+Function  
  ----- ------------  ---------------      ----- ------------  ---------------
     4     -1.145538  1 Be py                 8      1.067257  1 Be py         
     3      0.544355  1 Be px                 7     -0.509520  1 Be px         

 Vector   11  Occ=3.754289D-20  E= 9.784370D-21
              MO Center= -7.6D-05, -2.4D-06, -9.6D-05, r^2= 3.1D+00
   Bfn.  Coefficient  Atom+Function         Bfn.  Coefficient  Atom+Function  
  ----- ------------  ---------------      ----- ------------  ---------------
    17     -1.975224  2 H  s                 19      1.975289  3 H  s          
     9      1.448749  1 Be pz                 5      1.387149  1 Be pz         

 Vector   12  Occ=1.624046D-22  E= 1.028298D-22
              MO Center= -2.8D-05, -5.9D-05,  5.2D-04, r^2= 3.3D+00
   Bfn.  Coefficient  Atom+Function         Bfn.  Coefficient  Atom+Function  
  ----- ------------  ---------------      ----- ------------  ---------------
     6      1.688258  1 Be s                 17     -1.375186  2 H  s          
    19     -1.373862  3 H  s                 15      0.708516  1 Be dzz        
    16      0.550958  2 H  s                 18      0.550426  3 H  s          
     2     -0.472750  1 Be s                 13     -0.300170  1 Be dyy        
    10     -0.293822  1 Be dxx                1      0.045423  1 Be s          

 Vector   13  Occ=5.679295D-24  E= 3.932719D-24
              MO Center= -1.3D-04, -1.4D-03,  1.5D-03, r^2= 1.2D+00
   Bfn.  Coefficient  Atom+Function         Bfn.  Coefficient  Atom+Function  
  ----- ------------  ---------------      ----- ------------  ---------------
    14     -1.239506  1 Be dyz               11      0.891071  1 Be dxy        
    12     -0.697205  1 Be dxz               10     -0.237317  1 Be dxx        
    13      0.190512  1 Be dyy                2      0.050577  1 Be s          

 Vector   14  Occ=1.120678D-23  E= 7.598760D-24
              MO Center= -2.3D-04,  8.8D-05, -1.5D-04, r^2= 1.2D+00
   Bfn.  Coefficient  Atom+Function         Bfn.  Coefficient  Atom+Function  
  ----- ------------  ---------------      ----- ------------  ---------------
    12     -1.554856  1 Be dxz               14      0.743942  1 Be dyz        
    11     -0.130985  1 Be dxy               13     -0.082211  1 Be dyy        
     2      0.079998  1 Be s                 15     -0.042408  1 Be dzz        

 Vector   15  Occ=6.407355D-27  E= 4.634259D-27
              MO Center= -2.5D-04, -5.7D-05, -7.5D-06, r^2= 1.2D+00
   Bfn.  Coefficient  Atom+Function         Bfn.  Coefficient  Atom+Function  
  ----- ------------  ---------------      ----- ------------  ---------------
    11      0.858241  1 Be dxy               10      0.753193  1 Be dxx        
    13     -0.748552  1 Be dyy               14      0.064519  1 Be dyz        
    12      0.060700  1 Be dxz                2     -0.028319  1 Be s          

 Vector   16  Occ=2.072226D-23  E= 1.470950D-23
              MO Center=  7.5D-05, -1.9D-03, -8.7D-04, r^2= 1.2D+00
   Bfn.  Coefficient  Atom+Function         Bfn.  Coefficient  Atom+Function  
  ----- ------------  ---------------      ----- ------------  ---------------
    11      1.204329  1 Be dxy               14      0.951345  1 Be dyz        
    13      0.453392  1 Be dyy               12      0.302406  1 Be dxz        
    10     -0.288107  1 Be dxx                2     -0.211489  1 Be s          
    15      0.101964  1 Be dzz                6      0.027590  1 Be s          

 Vector   17  Occ=5.909757D-25  E= 6.604896D-25
              MO Center=  4.8D-04,  2.3D-04, -4.6D-04, r^2= 3.3D+00
   Bfn.  Coefficient  Atom+Function         Bfn.  Coefficient  Atom+Function  
  ----- ------------  ---------------      ----- ------------  ---------------
    17     -2.099606  2 H  s                 19      2.100234  3 H  s          
     9      1.862140  1 Be pz                16      1.081004  2 H  s          
    18     -1.081624  3 H  s                  5     -0.283855  1 Be pz         

 Vector   18  Occ=1.399967D-12  E= 1.992155D-12
              MO Center= -1.8D-06, -2.1D-08, -3.7D-05, r^2= 1.7D+00
   Bfn.  Coefficient  Atom+Function         Bfn.  Coefficient  Atom+Function  
  ----- ------------  ---------------      ----- ------------  ---------------
    15     -0.982143  1 Be dzz               16      0.972568  2 H  s          
    18      0.972590  3 H  s                 10      0.774463  1 Be dxx        
    13      0.774922  1 Be dyy                2     -0.734290  1 Be s          
    17     -0.354411  2 H  s                 19     -0.354319  3 H  s          
     6      0.131703  1 Be s                  1      0.094035  1 Be s          

 Vector   19  Occ=2.778452D-11  E= 5.847608D-11
              MO Center=  1.0D-04,  2.8D-05,  2.0D-04, r^2= 9.3D-01
   Bfn.  Coefficient  Atom+Function         Bfn.  Coefficient  Atom+Function  
  ----- ------------  ---------------      ----- ------------  ---------------
     2     -6.717332  1 Be s                 15      3.086571  1 Be dzz        
    10      2.790954  1 Be dxx               13      2.771391  1 Be dyy        
     6      0.338643  1 Be s                  1      0.298422  1 Be s          
    16     -0.279729  2 H  s                 18     -0.278079  3 H  s          
    17      0.153171  2 H  s                 19      0.150558  3 H  s          


 Task  times  cpu:     5266.8s     wall:     5683.6s
 Summary of allocated global arrays
-----------------------------------
  No active global arrays



                         GA Statistics for process    0
                         ------------------------------

       create   destroy   get      put      acc     scatter   gather  read&inc
calls:   90       90     6.38e+08 1.32e+05 3.74e+08    0        0       28     
number of processes/call 1.00e+00 1.00e+00 1.00e+00 0.00e+00 0.00e+00
bytes total:             1.48e+12 3.66e+08 1.08e+12 0.00e+00 0.00e+00 2.24e+02
bytes remote:            0.00e+00 0.00e+00 0.00e+00 0.00e+00 0.00e+00 0.00e+00
Max memory consumed for GA by this process: 98192 bytes
MA_summarize_allocated_blocks: starting scan ...
MA_summarize_allocated_blocks: scan completed: 0 heap blocks, 0 stack blocks
MA usage statistics:

	allocation statistics:
					      heap	     stack
					      ----	     -----
	current number of blocks	         0	         0
	maximum number of blocks	        19	        17
	current total bytes		         0	         0
	maximum total bytes		   3212184	  22508712
	maximum total K-bytes		      3213	     22509
	maximum total M-bytes		         4	        23


                                NWChem Input Module
                                -------------------





                                     CITATION
                                     --------
                Please cite the following reference when publishing
                           results obtained with NWChem:

                 M. Valiev, E.J. Bylaska, N. Govind, K. Kowalski,
              T.P. Straatsma, H.J.J. van Dam, D. Wang, J. Nieplocha,
                        E. Apra, T.L. Windus, W.A. de Jong
                 "NWChem: a comprehensive and scalable open-source
                  solution for large scale molecular simulations"
                      Comput. Phys. Commun. 181, 1477 (2010)
                           doi:10.1016/j.cpc.2010.04.018

                                      AUTHORS
                                      -------
          E. Apra, E. J. Bylaska, W. A. de Jong, N. Govind, K. Kowalski,
       T. P. Straatsma, M. Valiev, H. J. J. van Dam, D. Wang, T. L. Windus,
        J. Hammond, J. Autschbach, K. Bhaskaran-Nair, J. Brabec, K. Lopata,
    S. A. Fischer, S. Krishnamoorthy, M. Jacquelin, W. Ma, M. Klemm, O. Villa,
      Y. Chen, V. Anisimov, F. Aquino, S. Hirata, M. T. Hackler, V. Konjkov,
      T. Risthaus, M. Malagoli, A. Marenich, A. Otero-de-la-Roza, J. Mullin,
        P. Nichols, R. Peverati, J. Pittner, Y. Zhao, P.-D. Fan, A. Fonari,
       M. Williamson, R. J. Harrison, J. R. Rehr, M. Dupuis, D. Silverstein,
    D. M. A. Smith, J. Nieplocha, V. Tipparaju, M. Krishnan, B. E. Van Kuiken,
        A. Vazquez-Mayagoitia, L. Jensen, M. Swart, Q. Wu, T. Van Voorhis,
     A. A. Auer, M. Nooijen, L. D. Crosby, E. Brown, G. Cisneros, G. I. Fann,
   H. Fruchtl, J. Garza, K. Hirao, R. A. Kendall, J. A. Nichols, K. Tsemekhman,
    K. Wolinski, J. Anchell, D. E. Bernholdt, P. Borowski, T. Clark, D. Clerc,
   H. Dachsel, M. J. O. Deegan, K. Dyall, D. Elwood, E. Glendening, M. Gutowski,
   A. C. Hess, J. Jaffe, B. G. Johnson, J. Ju, R. Kobayashi, R. Kutteh, Z. Lin,
   R. Littlefield, X. Long, B. Meng, T. Nakajima, S. Niu, L. Pollack, M. Rosing,
   K. Glaesemann, G. Sandrone, M. Stave, H. Taylor, G. Thomas, J. H. van Lenthe,
                               A. T. Wong, Z. Zhang.

 Total times  cpu:     5484.1s     wall:     5922.7s
