 argument  1 = wfn1_beh2.nw



============================== echo of input deck ==============================
echo
start wfn1_beh2_dat

geometry
  be     0.00000000     0.00000000     0.00000000
  h      0.00000000     0.00000000     1.33420719
  h      0.00000000     0.00000000    -1.33420719
end
basis
  * library 6-31g*
end

set wfn1:t_bath 0.0
set wfn1:maxit  200
set wfn1:print_error T

task wfn1 energy

set wfn1:t_bath 0.5
set wfn1:maxit  2000
set wfn1:print_error T

task wfn1 energy
================================================================================


                                         
                                         


              Northwest Computational Chemistry Package (NWChem) 6.8
              ------------------------------------------------------


                    Environmental Molecular Sciences Laboratory
                       Pacific Northwest National Laboratory
                                Richland, WA 99352

                              Copyright (c) 1994-2015
                       Pacific Northwest National Laboratory
                            Battelle Memorial Institute

             NWChem is an open-source computational chemistry package
                        distributed under the terms of the
                      Educational Community License (ECL) 2.0
             A copy of the license is included with this distribution
                              in the LICENSE.TXT file

                                  ACKNOWLEDGMENT
                                  --------------

            This software and its documentation were developed at the
            EMSL at Pacific Northwest National Laboratory, a multiprogram
            national laboratory, operated for the U.S. Department of Energy
            by Battelle under Contract Number DE-AC05-76RL01830. Support
            for this work was provided by the Department of Energy Office
            of Biological and Environmental Research, Office of Basic
            Energy Sciences, and the Office of Advanced Scientific Computing.


           Job information
           ---------------

    hostname        = erato
    program         = ../../../bin/LINUX64/nwchem
    date            = Sun Apr 22 22:34:57 2018

    compiled        = Sun_Apr_22_21:22:26_2018
    source          = /home/hvandam/nwchem-1-wfn1
    nwchem branch   = Development
    nwchem revision = nwchem_on_git-51-gcccac83fc2a4226c5c513281d68ab773edcb0a0d
    ga revision     = nwchem_on_git-43-g1da910a
    use scalapack   = F
    input           = wfn1_beh2.nw
    prefix          = wfn1_beh2_dat.
    data base       = ./wfn1_beh2_dat.db
    status          = startup
    nproc           =        1
    time left       =     -1s



           Memory information
           ------------------

    heap     =   13107194 doubles =    100.0 Mbytes
    stack    =   13107199 doubles =    100.0 Mbytes
    global   =   26214400 doubles =    200.0 Mbytes (distinct from heap & stack)
    total    =   52428793 doubles =    400.0 Mbytes
    verify   = yes
    hardfail = no 


           Directory information
           ---------------------

  0 permanent = .
  0 scratch   = .




                                NWChem Input Module
                                -------------------



 Scaling coordinates for geometry "geometry" by  1.889725989
 (inverse scale =  0.529177249)

 ORDER OF PRIMARY AXIS IS BEING SET TO 4
 D4H symmetry detected

          ------
          auto-z
          ------
  autoz: insufficient variables                     2                    3
     1 autoz failed with cvr_scaling = 1.2 changing to 1.3
  autoz: insufficient variables                     2                    3
     2 autoz failed with cvr_scaling = 1.3 changing to 1.4
  autoz: insufficient variables                     2                    3
     3 autoz failed with cvr_scaling = 1.4 changing to 1.5
  autoz: insufficient variables                     2                    3
     4 autoz failed with cvr_scaling = 1.5 changing to 1.6
  autoz: insufficient variables                     2                    3
     5 autoz failed with cvr_scaling = 1.6 changing to 1.7
  autoz: insufficient variables                     2                    3

 AUTOZ failed to generate good internal coordinates.
 Cartesian coordinates will be used in optimizations.



                             Geometry "geometry" -> ""
                             -------------------------

 Output coordinates in angstroms (scale by  1.889725989 to convert to a.u.)

  No.       Tag          Charge          X              Y              Z
 ---- ---------------- ---------- -------------- -------------- --------------
    1 be                   4.0000     0.00000000     0.00000000     0.00000000
    2 h                    1.0000     0.00000000     0.00000000     1.33420719
    3 h                    1.0000     0.00000000     0.00000000    -1.33420719

      Atomic Mass 
      ----------- 

      be                 9.012180
      h                  1.007825


 Effective nuclear repulsion energy (a.u.)       3.3712954406

            Nuclear Dipole moment (a.u.) 
            ----------------------------
        X                 Y               Z
 ---------------- ---------------- ----------------
     0.0000000000     0.0000000000     0.0000000000

      Symmetry information
      --------------------

 Group name             D4h       
 Group number             28
 Group order              16
 No. of unique centers     2

      Symmetry unique atoms

     1    2


            XYZ format geometry
            -------------------
     3
 geometry
 be                    0.00000000     0.00000000     0.00000000
 h                     0.00000000     0.00000000     1.33420719
 h                     0.00000000     0.00000000    -1.33420719

 ==============================================================================
                                internuclear distances
 ------------------------------------------------------------------------------
       center one      |      center two      | atomic units |  angstroms
 ------------------------------------------------------------------------------
    2 h                |   1 be               |     2.52129  |     1.33421
    3 h                |   1 be               |     2.52129  |     1.33421
 ------------------------------------------------------------------------------
                         number of included internuclear distances:          2
 ==============================================================================



 ==============================================================================
                                 internuclear angles
 ------------------------------------------------------------------------------
        center 1       |       center 2       |       center 3       |  degrees
 ------------------------------------------------------------------------------
    2 h                |   1 be               |   3 h                |   180.00
 ------------------------------------------------------------------------------
                            number of included internuclear angles:          1
 ==============================================================================





 Summary of "ao basis" -> "" (cartesian)
 ------------------------------------------------------------------------------
       Tag                 Description            Shells   Functions and Types
 ---------------- ------------------------------  ------  ---------------------
 *                           6-31g*                   on all atoms 



                                NWChem WFN1 Module
                                ------------------


                      Basis "ao basis" -> "ao basis" (cartesian)
                      -----
  be (Beryllium)
  --------------
            Exponent  Coefficients 
       -------------- ---------------------------------------------------------
  1 S  1.26458570E+03  0.001945
  1 S  1.89936810E+02  0.014835
  1 S  4.31590890E+01  0.072091
  1 S  1.20986630E+01  0.237154
  1 S  3.80632320E+00  0.469199
  1 S  1.27289030E+00  0.356520

  2 S  3.19646310E+00 -0.112649
  2 S  7.47813300E-01 -0.229506
  2 S  2.19966300E-01  1.186917

  3 P  3.19646310E+00  0.055980
  3 P  7.47813300E-01  0.261551
  3 P  2.19966300E-01  0.793972

  4 S  8.23099000E-02  1.000000

  5 P  8.23099000E-02  1.000000

  6 D  4.00000000E-01  1.000000

  h (Hydrogen)
  ------------
            Exponent  Coefficients 
       -------------- ---------------------------------------------------------
  1 S  1.87311370E+01  0.033495
  1 S  2.82539370E+00  0.234727
  1 S  6.40121700E-01  0.813757

  2 S  1.61277800E-01  1.000000



 Summary of "ao basis" -> "ao basis" (cartesian)
 ------------------------------------------------------------------------------
       Tag                 Description            Shells   Functions and Types
 ---------------- ------------------------------  ------  ---------------------
 be                          6-31g*                  6       15   3s2p1d
 h                           6-31g*                  2        2   2s



      Superposition of Atomic Density Guess
      -------------------------------------

 Sum of atomic energies:         -15.56322911

      Non-variational initial energy
      ------------------------------

 Total energy =     -15.619219
 1-e energy   =     -26.620541
 2-e energy   =       7.630027
 HOMO         =      -0.344167
 LUMO         =       0.058550

 iteration              energy           error          err Na          err Nb          err Ca          err Cb
 ---------              ------           -----          ------          ------          ------          ------
         1        -15.76315092        0.135259        0.067630        0.067630        0.000000        0.000000
         2        -15.76455597        0.315997        0.157999        0.157999        0.000000        0.000000
         3        -15.76502709        0.514455        0.257227        0.257227        0.000000        0.000000
         4        -15.76528807        0.804769        0.402384        0.402384        0.000000        0.000000
         5        -15.76546178        0.742342        0.371171        0.371171        0.000000        0.000000
         6        -15.76558361        1.450454        0.725227        0.725227        0.000000        0.000000
         7        -15.76567047        1.277715        0.638858        0.638858        0.000000        0.000000
         8        -15.76573502        2.328366        1.164183        1.164183        0.000000        0.000000
         9        -15.76578185        1.915217        0.957608        0.957608        0.000000        0.000000
        10        -15.76581789        3.159075        1.579538        1.579538        0.000000        0.000000
        11        -15.76584405        2.517208        1.258604        1.258604        0.000000        0.000000
        12        -15.76586481        3.668241        1.834120        1.834120        0.000000        0.000000
        13        -15.76587995        3.054406        1.527203        1.527203        0.000000        0.000000
        14        -15.76589214        3.871699        1.935849        1.935849        0.000000        0.000000
        15        -15.76590122        3.521294        1.760647        1.760647        0.000000        0.000000
        16        -15.76590849        3.974980        1.987490        1.987490        0.000000        0.000000
        17        -15.76591405        3.882268        1.941134        1.941134        0.000000        0.000000
        18        -15.76591847        4.118999        2.059500        2.059500        0.000000        0.000000
        19        -15.76592191        4.157578        2.078789        2.078789        0.000000        0.000000
        20        -15.76592462        4.316246        2.158123        2.158123        0.000000        0.000000
        21        -15.76592675        4.395989        2.197994        2.197994        0.000000        0.000000
        22        -15.76592844        4.531042        2.265521        2.265521        0.000000        0.000000
        23        -15.76592977        4.611679        2.305839        2.305839        0.000000        0.000000
        24        -15.76593082        4.729752        2.364876        2.364876        0.000000        0.000000
        25        -15.76593165        4.794978        2.397489        2.397489        0.000000        0.000000
        26        -15.76593231        4.894210        2.447105        2.447105        0.000000        0.000000
        27        -15.76593284        4.940519        2.470260        2.470260        0.000000        0.000000
        28        -15.76593325        5.022615        2.511308        2.511308        0.000000        0.000000
        29        -15.76593358        5.052628        2.526314        2.526314        0.000000        0.000000
        30        -15.76593385        5.121473        2.560737        2.560737        0.000000        0.000000
        31        -15.76593406        5.139073        2.569536        2.569536        0.000000        0.000000
        32        -15.76593423        5.198359        2.599180        2.599180        0.000000        0.000000
        33        -15.76593436        5.206758        2.603379        2.603379        0.000000        0.000000
        34        -15.76593447        7.438474        3.719237        3.719237        0.000000        0.000000
        35        -15.76593455        3.969005        1.984502        1.984502        0.000000        0.000000
        36        -15.76593463        8.509924        4.254962        4.254962        0.000000        0.000000
        37        -15.76593468        3.296171        1.648086        1.648086        0.000000        0.000000
        38        -15.76593473        8.965305        4.482653        4.482653        0.000000        0.000000
        39        -15.76593476        2.987886        1.493943        1.493943        0.000000        0.000000
        40        -15.76593479        9.063281        4.531640        4.531640        0.000000        0.000000
        41        -15.76593481        2.906768        1.453384        1.453384        0.000000        0.000000
        42        -15.76593483        9.101333        4.550667        4.550667        0.000000        0.000000
        43        -15.76593485        2.885822        1.442911        1.442911        0.000000        0.000000
        44        -15.76593486        9.134571        4.567285        4.567285        0.000000        0.000000
        45        -15.76593487        2.874298        1.437149        1.437149        0.000000        0.000000
        46        -15.76593487        9.164362        4.582181        4.582181        0.000000        0.000000
        47        -15.76593488        2.864606        1.432303        1.432303        0.000000        0.000000
        48        -15.76593488        9.192928        4.596464        4.596464        0.000000        0.000000
        49        -15.76593489        2.854635        1.427318        1.427318        0.000000        0.000000
        50        -15.76593489        0.000913        0.000456        0.000456        0.000000        0.000000
        51        -15.76593489        0.071881        0.035940        0.035940        0.000000        0.000000
        52        -15.76593490        0.014284        0.007142        0.007142        0.000000        0.000000
        53        -15.76593490        0.048492        0.024246        0.024246        0.000000        0.000000
        54        -15.76593490        0.037064        0.018532        0.018532        0.000000        0.000000
        55        -15.76593490        0.104108        0.052054        0.052054        0.000000        0.000000
        56        -15.76593490        0.083262        0.041631        0.041631        0.000000        0.000000
        57        -15.76593490        0.228714        0.114357        0.114357        0.000000        0.000000
        58        -15.76593490        0.190176        0.095088        0.095088        0.000000        0.000000
        59        -15.76593490        0.482496        0.241248        0.241248        0.000000        0.000000
        60        -15.76593490        0.452045        0.226022        0.226022        0.000000        0.000000
        61        -15.76593490        0.000006        0.000003        0.000003        0.000000        0.000000
        62        -15.76593490        0.000011        0.000006        0.000006        0.000000        0.000000
        63        -15.76593490        0.000012        0.000006        0.000006        0.000000        0.000000
        64        -15.76593490        0.000024        0.000012        0.000012        0.000000        0.000000
        65        -15.76593490        0.000030        0.000015        0.000015        0.000000        0.000000
        66        -15.76593490        0.000046        0.000023        0.000023        0.000000        0.000000
        67        -15.76593490        0.000072        0.000036        0.000036        0.000000        0.000000
        68        -15.76593490        0.000086        0.000043        0.000043        0.000000        0.000000
        69        -15.76593490        0.000000        0.000000        0.000000        0.000000        0.000000

 Reached Convergence

 WFN1                     :
 --------------------------
 Total WFN1 energy =         -15.7659348972
 1-Electron energy =         -27.0681784533
 2-Electron energy =           7.9309481155
 Entropy energy    =           0.0000000000
 Nuclear energy    =           3.3712954406

 conventional Hartree-Fock:
 --------------------------
 Total SCF energy  =         -15.7659348972
 2-Electron energy =           7.9309481155


      Natural orbital occupation numbers

          Alpha     Beta
         ------   ------
     3   1.0000   1.0000
     4   0.0000   0.0000

                     WFN1 Final Correlation function energies
                     ----------------------------------------

              alpha       beta  
            --------    --------
       1     -4.6719     -4.6719
       2     -0.4867     -0.4867
       3     -0.4445     -0.4445
       4      0.2311      0.2311
       5      0.3628      0.3628
       6      0.7086      0.7086
       7      0.7246      0.7246
       8      0.7275      0.7275
       9      0.7424      0.7424
      10      0.7454      0.7454
      11      0.7514      0.7514
      12      0.7940      0.7940
      13      0.8380      0.8380
      14      0.8900      0.8900
      15      0.9081      0.9081
      16      0.9682      0.9682
      17      0.9766      0.9766
      18      1.6180      1.6180
      19      2.1701      2.1701

                  WFN1 Final alpha Correlation Function Analysis
                  ----------------------------------------------


 global array: Ca[1:19,1:19],  handle: -984 

            1           2           3           4           5           6  
       ----------- ----------- ----------- ----------- ----------- -----------
   1       1.00000     0.00000     0.00000     0.00000     0.00000     0.00000
   2       0.00000     1.00000     0.00000     0.00000     0.00000     0.00000
   3       0.00000     0.00000     1.00000     0.00000     0.00000     0.00000
   4       0.00000     0.00000     0.00000     0.00000     0.00000     0.00000
   5       0.00000     0.00000     0.00000     1.00000     0.00000     0.00000
   6       0.00000     0.00000     0.00000     0.00000     0.00000     0.00000
   7       0.00000     0.00000     0.00000     0.00000     0.00000     0.00000
   8       0.00000     0.00000     0.00000     0.00000     0.00000     0.00000
   9       0.00000     0.00000     0.00000     0.00000     0.00000     0.00000
  10       0.00000     0.00000     0.00000     0.00000     0.00000     0.00000
  11       0.00000     0.00000     0.00000     0.00000     0.00000     1.00000
  12       0.00000     0.00000     0.00000     0.00000     0.00000     0.00000
  13       0.00000     0.00000     0.00000     0.00000     0.00000     0.00000
  14       0.00000     0.00000     0.00000     0.00000     1.00000     0.00000
  15       0.00000     0.00000     0.00000     0.00000     0.00000     0.00000
  16       0.00000     0.00000     0.00000     0.00000     0.00000     0.00000
  17       0.00000     0.00000     0.00000     0.00000     0.00000     0.00000
  18       0.00000     0.00000     0.00000     0.00000     0.00000     0.00000
  19       0.00000     0.00000     0.00000     0.00000     0.00000     0.00000

            7           8           9          10          11          12  
       ----------- ----------- ----------- ----------- ----------- -----------
   1       0.00000     0.00000     0.00000     0.00000     0.00000     0.00000
   2       0.00000     0.00000     0.00000     0.00000     0.00000     0.00000
   3       0.00000     0.00000     0.00000     0.00000     0.00000     0.00000
   4       0.00000     0.00000     0.00000     0.00000     0.00000     0.00000
   5       0.00000     0.00000     0.00000     0.00000     0.00000     0.00000
   6       0.00000     0.00000     0.00000     0.00000     0.00000     0.00000
   7       0.00000     0.00000     0.00000     0.00000     0.00000     0.00000
   8       0.00000     0.00000     0.00000     0.00000     0.00000     0.00000
   9       0.00000     0.00000     0.00000     0.00000     1.00000     0.00000
  10       1.00000     0.00000     0.00000     0.00000     0.00000     0.00000
  11       0.00000     0.00000     0.00000     0.00000     0.00000     0.00000
  12       0.00000     1.00000     0.00000     0.00000     0.00000     0.00000
  13       0.00000     0.00000     0.00000     0.00000     0.00000     0.00000
  14       0.00000     0.00000     0.00000     0.00000     0.00000     0.00000
  15       0.00000     0.00000     1.00000     0.00000     0.00000     0.00000
  16       0.00000     0.00000     0.00000     0.00000     0.00000     0.00000
  17       0.00000     0.00000     0.00000     1.00000     0.00000     0.00000
  18       0.00000     0.00000     0.00000     0.00000     0.00000     1.00000
  19       0.00000     0.00000     0.00000     0.00000     0.00000     0.00000

           13          14          15          16          17          18  
       ----------- ----------- ----------- ----------- ----------- -----------
   1       0.00000     0.00000     0.00000     0.00000     0.00000     0.00000
   2       0.00000     0.00000     0.00000     0.00000     0.00000     0.00000
   3       0.00000     0.00000     0.00000     0.00000     0.00000     0.00000
   4       1.00000     0.00000     0.00000     0.00000     0.00000     0.00000
   5       0.00000     0.00000     0.00000     0.00000     0.00000     0.00000
   6       0.00000     0.00000     0.00000     0.00000     0.00000     0.00000
   7       0.00000     0.00000     0.00000     0.00000     0.00000     1.00000
   8       0.00000     0.00000     1.00000     0.00000     0.00000     0.00000
   9       0.00000     0.00000     0.00000     0.00000     0.00000     0.00000
  10       0.00000     0.00000     0.00000     0.00000     0.00000     0.00000
  11       0.00000     0.00000     0.00000     0.00000     0.00000     0.00000
  12       0.00000     0.00000     0.00000     0.00000     0.00000     0.00000
  13       0.00000     1.00000     0.00000     0.00000     0.00000     0.00000
  14       0.00000     0.00000     0.00000     0.00000     0.00000     0.00000
  15       0.00000     0.00000     0.00000     0.00000     0.00000     0.00000
  16       0.00000     0.00000     0.00000     1.00000     0.00000     0.00000
  17       0.00000     0.00000     0.00000     0.00000     0.00000     0.00000
  18       0.00000     0.00000     0.00000     0.00000     0.00000     0.00000
  19       0.00000     0.00000     0.00000     0.00000     1.00000     0.00000

           19  
       -----------
   1       0.00000
   2       0.00000
   3       0.00000
   4       0.00000
   5       0.00000
   6       1.00000
   7       0.00000
   8       0.00000
   9       0.00000
  10       0.00000
  11       0.00000
  12       0.00000
  13       0.00000
  14       0.00000
  15       0.00000
  16       0.00000
  17       0.00000
  18       0.00000
  19       0.00000

                   WFN1 Final beta Correlation Function Analysis
                   ---------------------------------------------


 global array: Cb[1:19,1:19],  handle: -983 

            1           2           3           4           5           6  
       ----------- ----------- ----------- ----------- ----------- -----------
   1       1.00000     0.00000     0.00000     0.00000     0.00000     0.00000
   2       0.00000     1.00000     0.00000     0.00000     0.00000     0.00000
   3       0.00000     0.00000     1.00000     0.00000     0.00000     0.00000
   4       0.00000     0.00000     0.00000     0.00000     0.00000     0.00000
   5       0.00000     0.00000     0.00000     1.00000     0.00000     0.00000
   6       0.00000     0.00000     0.00000     0.00000     0.00000     0.00000
   7       0.00000     0.00000     0.00000     0.00000     0.00000     0.00000
   8       0.00000     0.00000     0.00000     0.00000     0.00000     0.00000
   9       0.00000     0.00000     0.00000     0.00000     0.00000     0.00000
  10       0.00000     0.00000     0.00000     0.00000     0.00000     0.00000
  11       0.00000     0.00000     0.00000     0.00000     0.00000     1.00000
  12       0.00000     0.00000     0.00000     0.00000     0.00000     0.00000
  13       0.00000     0.00000     0.00000     0.00000     0.00000     0.00000
  14       0.00000     0.00000     0.00000     0.00000     1.00000     0.00000
  15       0.00000     0.00000     0.00000     0.00000     0.00000     0.00000
  16       0.00000     0.00000     0.00000     0.00000     0.00000     0.00000
  17       0.00000     0.00000     0.00000     0.00000     0.00000     0.00000
  18       0.00000     0.00000     0.00000     0.00000     0.00000     0.00000
  19       0.00000     0.00000     0.00000     0.00000     0.00000     0.00000

            7           8           9          10          11          12  
       ----------- ----------- ----------- ----------- ----------- -----------
   1       0.00000     0.00000     0.00000     0.00000     0.00000     0.00000
   2       0.00000     0.00000     0.00000     0.00000     0.00000     0.00000
   3       0.00000     0.00000     0.00000     0.00000     0.00000     0.00000
   4       0.00000     0.00000     0.00000     0.00000     0.00000     0.00000
   5       0.00000     0.00000     0.00000     0.00000     0.00000     0.00000
   6       0.00000     0.00000     0.00000     0.00000     0.00000     0.00000
   7       0.00000     0.00000     0.00000     0.00000     0.00000     0.00000
   8       0.00000     0.00000     0.00000     0.00000     0.00000     0.00000
   9       0.00000     0.00000     0.00000     0.00000     1.00000     0.00000
  10       1.00000     0.00000     0.00000     0.00000     0.00000     0.00000
  11       0.00000     0.00000     0.00000     0.00000     0.00000     0.00000
  12       0.00000     1.00000     0.00000     0.00000     0.00000     0.00000
  13       0.00000     0.00000     0.00000     0.00000     0.00000     0.00000
  14       0.00000     0.00000     0.00000     0.00000     0.00000     0.00000
  15       0.00000     0.00000     1.00000     0.00000     0.00000     0.00000
  16       0.00000     0.00000     0.00000     0.00000     0.00000     0.00000
  17       0.00000     0.00000     0.00000     1.00000     0.00000     0.00000
  18       0.00000     0.00000     0.00000     0.00000     0.00000     1.00000
  19       0.00000     0.00000     0.00000     0.00000     0.00000     0.00000

           13          14          15          16          17          18  
       ----------- ----------- ----------- ----------- ----------- -----------
   1       0.00000     0.00000     0.00000     0.00000     0.00000     0.00000
   2       0.00000     0.00000     0.00000     0.00000     0.00000     0.00000
   3       0.00000     0.00000     0.00000     0.00000     0.00000     0.00000
   4       1.00000     0.00000     0.00000     0.00000     0.00000     0.00000
   5       0.00000     0.00000     0.00000     0.00000     0.00000     0.00000
   6       0.00000     0.00000     0.00000     0.00000     0.00000     0.00000
   7       0.00000     0.00000     0.00000     0.00000     0.00000     1.00000
   8       0.00000     0.00000     1.00000     0.00000     0.00000     0.00000
   9       0.00000     0.00000     0.00000     0.00000     0.00000     0.00000
  10       0.00000     0.00000     0.00000     0.00000     0.00000     0.00000
  11       0.00000     0.00000     0.00000     0.00000     0.00000     0.00000
  12       0.00000     0.00000     0.00000     0.00000     0.00000     0.00000
  13       0.00000     1.00000     0.00000     0.00000     0.00000     0.00000
  14       0.00000     0.00000     0.00000     0.00000     0.00000     0.00000
  15       0.00000     0.00000     0.00000     0.00000     0.00000     0.00000
  16       0.00000     0.00000     0.00000     1.00000     0.00000     0.00000
  17       0.00000     0.00000     0.00000     0.00000     0.00000     0.00000
  18       0.00000     0.00000     0.00000     0.00000     0.00000     0.00000
  19       0.00000     0.00000     0.00000     0.00000     1.00000     0.00000

           19  
       -----------
   1       0.00000
   2       0.00000
   3       0.00000
   4       0.00000
   5       0.00000
   6       1.00000
   7       0.00000
   8       0.00000
   9       0.00000
  10       0.00000
  11       0.00000
  12       0.00000
  13       0.00000
  14       0.00000
  15       0.00000
  16       0.00000
  17       0.00000
  18       0.00000
  19       0.00000

                     WFN1 Final Alpha Natural Orbital Analysis
                     -----------------------------------------

 Vector    1  Occ=1.000000D+00  E=-4.671922D+00
              MO Center=  8.4D-18, -6.5D-18,  7.3D-13, r^2= 6.6D-02
   Bfn.  Coefficient  Atom+Function         Bfn.  Coefficient  Atom+Function  
  ----- ------------  ---------------      ----- ------------  ---------------
     1     -0.997597  1 Be s          

 Vector    2  Occ=1.000000D+00  E=-4.866922D-01
              MO Center=  2.8D-16, -2.9D-16, -7.3D-13, r^2= 2.1D+00
   Bfn.  Coefficient  Atom+Function         Bfn.  Coefficient  Atom+Function  
  ----- ------------  ---------------      ----- ------------  ---------------
     6      0.249204  1 Be s                 17      0.242466  2 H  s          
    19      0.242466  3 H  s                  2      0.215694  1 Be s          
    16      0.198042  2 H  s                 18      0.198042  3 H  s          
     1     -0.182285  1 Be s                 15      0.077440  1 Be dzz        

 Vector    3  Occ=1.000000D+00  E=-4.445269D-01
              MO Center= -3.6D-16, -7.8D-16, -1.5D-15, r^2= 2.2D+00
   Bfn.  Coefficient  Atom+Function         Bfn.  Coefficient  Atom+Function  
  ----- ------------  ---------------      ----- ------------  ---------------
     5     -0.387415  1 Be pz                16     -0.230959  2 H  s          
    18      0.230959  3 H  s                 17     -0.216179  2 H  s          
    19      0.216179  3 H  s                  9     -0.141683  1 Be pz         

 Vector    4  Occ=0.000000D+00  E= 2.311243D-01
              MO Center= -8.9D-03,  3.7D-02, -4.0D-03, r^2= 2.7D+00
   Bfn.  Coefficient  Atom+Function         Bfn.  Coefficient  Atom+Function  
  ----- ------------  ---------------      ----- ------------  ---------------
    14      1.001911  1 Be dyz                7     -0.562583  1 Be px         
    11     -0.538137  1 Be dxy                3      0.522248  1 Be px         
     9      0.520758  1 Be pz                18      0.431373  3 H  s          
    13      0.371117  1 Be dyy                8     -0.366798  1 Be py         
    15     -0.292384  1 Be dzz                4      0.261696  1 Be py         

 Vector    5  Occ=0.000000D+00  E= 3.627941D-01
              MO Center= -1.7D-02, -3.1D-02, -1.2D-01, r^2= 3.8D+00
   Bfn.  Coefficient  Atom+Function         Bfn.  Coefficient  Atom+Function  
  ----- ------------  ---------------      ----- ------------  ---------------
     6     -2.007216  1 Be s                 19      1.072816  3 H  s          
    17      1.007286  2 H  s                 15      0.235236  1 Be dzz        
     2     -0.227746  1 Be s                 10      0.169791  1 Be dxx        
    13      0.165754  1 Be dyy               18      0.157616  3 H  s          
     5      0.147230  1 Be pz                 1      0.137097  1 Be s          

 Vector    6  Occ=0.000000D+00  E= 7.086251D-01
              MO Center=  1.2D-03, -2.4D-03,  2.6D-01, r^2= 1.2D+00
   Bfn.  Coefficient  Atom+Function         Bfn.  Coefficient  Atom+Function  
  ----- ------------  ---------------      ----- ------------  ---------------
     2     -5.330131  1 Be s                 15      2.502111  1 Be dzz        
    10      2.222748  1 Be dxx               13      2.196284  1 Be dyy        
     5      0.766979  1 Be pz                16     -0.593723  2 H  s          
     6      0.522122  1 Be s                 17     -0.301387  2 H  s          
     1      0.222902  1 Be s                 19      0.189937  3 H  s          

 Vector    7  Occ=0.000000D+00  E= 7.245922D-01
              MO Center=  2.8D-02, -2.4D-02, -1.6D-01, r^2= 1.4D+00
   Bfn.  Coefficient  Atom+Function         Bfn.  Coefficient  Atom+Function  
  ----- ------------  ---------------      ----- ------------  ---------------
     2     -3.832789  1 Be s                 15      1.794037  1 Be dzz        
    13      1.619027  1 Be dyy               10      1.581067  1 Be dxx        
     5     -1.007670  1 Be pz                18     -0.784020  3 H  s          
    16      0.336509  2 H  s                 17      0.315182  2 H  s          
     1      0.171838  1 Be s                  3      0.142661  1 Be px         

 Vector    8  Occ=0.000000D+00  E= 7.274983D-01
              MO Center= -1.3D-02,  4.9D-02,  5.6D-02, r^2= 3.7D+00
   Bfn.  Coefficient  Atom+Function         Bfn.  Coefficient  Atom+Function  
  ----- ------------  ---------------      ----- ------------  ---------------
    19      1.966349  3 H  s                  9      1.650933  1 Be pz         
    18     -0.838307  3 H  s                 16     -0.616849  2 H  s          
     6     -0.538618  1 Be s                 17     -0.506501  2 H  s          
    12      0.433618  1 Be dxz                3     -0.359077  1 Be px         
    13     -0.330796  1 Be dyy               15      0.289431  1 Be dzz        

 Vector    9  Occ=0.000000D+00  E= 7.424117D-01
              MO Center=  1.5D-01,  2.1D-01, -2.9D-01, r^2= 2.2D+00
   Bfn.  Coefficient  Atom+Function         Bfn.  Coefficient  Atom+Function  
  ----- ------------  ---------------      ----- ------------  ---------------
    19      1.717514  3 H  s                  2      1.456046  1 Be s          
     9      1.356390  1 Be pz                17     -1.306532  2 H  s          
     3      0.668903  1 Be px                18     -0.626552  3 H  s          
    13     -0.569424  1 Be dyy                6     -0.542347  1 Be s          
    12     -0.482986  1 Be dxz                4      0.474094  1 Be py         

 Vector   10  Occ=0.000000D+00  E= 7.454307D-01
              MO Center=  7.0D-03,  1.2D-01, -6.2D-01, r^2= 2.7D+00
   Bfn.  Coefficient  Atom+Function         Bfn.  Coefficient  Atom+Function  
  ----- ------------  ---------------      ----- ------------  ---------------
     2      1.006937  1 Be s                  6     -0.968136  1 Be s          
     9      0.939947  1 Be pz                14     -0.633089  1 Be dyz        
    17     -0.581812  2 H  s                 10      0.522752  1 Be dxx        
    15     -0.402140  1 Be dzz               18      0.358427  3 H  s          
     4      0.325460  1 Be py                11     -0.264231  1 Be dxy        

 Vector   11  Occ=0.000000D+00  E= 7.513808D-01
              MO Center= -8.4D-02,  3.6D-01,  2.5D-01, r^2= 4.3D+00
   Bfn.  Coefficient  Atom+Function         Bfn.  Coefficient  Atom+Function  
  ----- ------------  ---------------      ----- ------------  ---------------
     9      1.886942  1 Be pz                17     -1.741770  2 H  s          
    19      1.393770  3 H  s                  2     -1.005181  1 Be s          
     8      0.767270  1 Be py                 6      0.679921  1 Be s          
    16      0.657255  2 H  s                  4     -0.528294  1 Be py         
    12      0.475702  1 Be dxz               13      0.325136  1 Be dyy        

 Vector   12  Occ=0.000000D+00  E= 7.939730D-01
              MO Center=  1.8D-01,  1.7D-02,  1.2D-01, r^2= 2.8D+00
   Bfn.  Coefficient  Atom+Function         Bfn.  Coefficient  Atom+Function  
  ----- ------------  ---------------      ----- ------------  ---------------
    12      1.045704  1 Be dxz                9     -0.814452  1 Be pz         
     6     -0.534734  1 Be s                  3      0.465373  1 Be px         
     7     -0.397746  1 Be px                 5      0.384778  1 Be pz         
     2      0.307216  1 Be s                 10      0.292907  1 Be dxx        
    11     -0.286881  1 Be dxy               15     -0.272379  1 Be dzz        

 Vector   13  Occ=0.000000D+00  E= 8.380311D-01
              MO Center=  2.6D-01, -5.5D-02,  1.3D-01, r^2= 2.7D+00
   Bfn.  Coefficient  Atom+Function         Bfn.  Coefficient  Atom+Function  
  ----- ------------  ---------------      ----- ------------  ---------------
    17     -1.135903  2 H  s                  2      1.074743  1 Be s          
    10     -0.848749  1 Be dxx               15      0.720582  1 Be dzz        
     7     -0.507393  1 Be px                 9      0.441149  1 Be pz         
    12      0.297036  1 Be dxz               18     -0.254598  3 H  s          
    13     -0.250043  1 Be dyy               11      0.226139  1 Be dxy        

 Vector   14  Occ=0.000000D+00  E= 8.900341D-01
              MO Center= -4.0D-01, -3.1D-01, -2.1D-01, r^2= 3.1D+00
   Bfn.  Coefficient  Atom+Function         Bfn.  Coefficient  Atom+Function  
  ----- ------------  ---------------      ----- ------------  ---------------
     2      0.971869  1 Be s                  7      0.692411  1 Be px         
     4     -0.569795  1 Be py                 6     -0.510878  1 Be s          
    19     -0.506417  3 H  s                 14      0.365579  1 Be dyz        
    11     -0.309678  1 Be dxy                8      0.299969  1 Be py         
    18      0.181558  3 H  s                 10     -0.178199  1 Be dxx        

 Vector   15  Occ=0.000000D+00  E= 9.081054D-01
              MO Center=  8.1D-02, -2.0D-01,  1.5D-01, r^2= 3.7D+00
   Bfn.  Coefficient  Atom+Function         Bfn.  Coefficient  Atom+Function  
  ----- ------------  ---------------      ----- ------------  ---------------
    17      1.082638  2 H  s                  8      0.845046  1 Be py         
     9     -0.694893  1 Be pz                 2      0.605077  1 Be s          
    16     -0.589862  2 H  s                  4     -0.534101  1 Be py         
    13     -0.535418  1 Be dyy                6     -0.513731  1 Be s          
     7     -0.481156  1 Be px                12     -0.421653  1 Be dxz        

 Vector   16  Occ=0.000000D+00  E= 9.682181D-01
              MO Center=  1.2D-02,  8.0D-02,  3.0D-01, r^2= 2.2D+00
   Bfn.  Coefficient  Atom+Function         Bfn.  Coefficient  Atom+Function  
  ----- ------------  ---------------      ----- ------------  ---------------
    17     -1.544859  2 H  s                  6      1.051228  1 Be s          
     9      0.686732  1 Be pz                13     -0.632956  1 Be dyy        
    16      0.628225  2 H  s                  2     -0.588985  1 Be s          
    14      0.485222  1 Be dyz               10      0.478360  1 Be dxx        
    15      0.347946  1 Be dzz                8     -0.219034  1 Be py         

 Vector   17  Occ=0.000000D+00  E= 9.765778D-01
              MO Center= -2.0D-01,  1.0D-01,  2.5D-02, r^2= 2.5D+00
   Bfn.  Coefficient  Atom+Function         Bfn.  Coefficient  Atom+Function  
  ----- ------------  ---------------      ----- ------------  ---------------
    19     -1.441307  3 H  s                 17      1.080601  2 H  s          
     9     -0.816979  1 Be pz                 3      0.650420  1 Be px         
    14     -0.635580  1 Be dyz               11      0.521320  1 Be dxy        
    18      0.450991  3 H  s                 16     -0.446608  2 H  s          
     6      0.442669  1 Be s                  7     -0.392889  1 Be px         

 Vector   18  Occ=0.000000D+00  E= 1.618044D+00
              MO Center=  2.1D-01, -1.3D-01,  1.7D-01, r^2= 1.7D+00
   Bfn.  Coefficient  Atom+Function         Bfn.  Coefficient  Atom+Function  
  ----- ------------  ---------------      ----- ------------  ---------------
    12     -0.950028  1 Be dxz               19      0.830500  3 H  s          
    17     -0.765612  2 H  s                  9      0.552169  1 Be pz         
     4     -0.522194  1 Be py                11     -0.511656  1 Be dxy        
    14     -0.447895  1 Be dyz               16      0.389485  2 H  s          
    13      0.385678  1 Be dyy                7     -0.326771  1 Be px         

 Vector   19  Occ=0.000000D+00  E= 2.170119D+00
              MO Center= -2.0D-01, -2.3D-01, -6.2D-02, r^2= 1.4D+00
   Bfn.  Coefficient  Atom+Function         Bfn.  Coefficient  Atom+Function  
  ----- ------------  ---------------      ----- ------------  ---------------
    11      1.211481  1 Be dxy                6     -0.679149  1 Be s          
    14      0.620167  1 Be dyz               15     -0.472714  1 Be dzz        
    10      0.371273  1 Be dxx                4     -0.333508  1 Be py         
     2      0.309417  1 Be s                 13      0.278977  1 Be dyy        
    16      0.202891  2 H  s                  3     -0.184183  1 Be px         


                     WFN1 Final Beta Natural Orbital Analysis
                     ----------------------------------------

 Vector    1  Occ=1.000000D+00  E=-4.671922D+00
              MO Center=  8.4D-18, -6.5D-18,  7.3D-13, r^2= 6.6D-02
   Bfn.  Coefficient  Atom+Function         Bfn.  Coefficient  Atom+Function  
  ----- ------------  ---------------      ----- ------------  ---------------
     1     -0.997597  1 Be s          

 Vector    2  Occ=1.000000D+00  E=-4.866922D-01
              MO Center=  2.8D-16, -2.9D-16, -7.3D-13, r^2= 2.1D+00
   Bfn.  Coefficient  Atom+Function         Bfn.  Coefficient  Atom+Function  
  ----- ------------  ---------------      ----- ------------  ---------------
     6      0.249204  1 Be s                 17      0.242466  2 H  s          
    19      0.242466  3 H  s                  2      0.215694  1 Be s          
    16      0.198042  2 H  s                 18      0.198042  3 H  s          
     1     -0.182285  1 Be s                 15      0.077440  1 Be dzz        

 Vector    3  Occ=1.000000D+00  E=-4.445269D-01
              MO Center= -3.6D-16, -7.8D-16, -1.5D-15, r^2= 2.2D+00
   Bfn.  Coefficient  Atom+Function         Bfn.  Coefficient  Atom+Function  
  ----- ------------  ---------------      ----- ------------  ---------------
     5     -0.387415  1 Be pz                16     -0.230959  2 H  s          
    18      0.230959  3 H  s                 17     -0.216179  2 H  s          
    19      0.216179  3 H  s                  9     -0.141683  1 Be pz         

 Vector    4  Occ=0.000000D+00  E= 2.311243D-01
              MO Center= -8.9D-03,  3.7D-02, -4.0D-03, r^2= 2.7D+00
   Bfn.  Coefficient  Atom+Function         Bfn.  Coefficient  Atom+Function  
  ----- ------------  ---------------      ----- ------------  ---------------
    14      1.001911  1 Be dyz                7     -0.562583  1 Be px         
    11     -0.538137  1 Be dxy                3      0.522248  1 Be px         
     9      0.520758  1 Be pz                18      0.431373  3 H  s          
    13      0.371117  1 Be dyy                8     -0.366798  1 Be py         
    15     -0.292384  1 Be dzz                4      0.261696  1 Be py         

 Vector    5  Occ=0.000000D+00  E= 3.627941D-01
              MO Center= -1.7D-02, -3.1D-02, -1.2D-01, r^2= 3.8D+00
   Bfn.  Coefficient  Atom+Function         Bfn.  Coefficient  Atom+Function  
  ----- ------------  ---------------      ----- ------------  ---------------
     6     -2.007216  1 Be s                 19      1.072816  3 H  s          
    17      1.007286  2 H  s                 15      0.235236  1 Be dzz        
     2     -0.227746  1 Be s                 10      0.169791  1 Be dxx        
    13      0.165754  1 Be dyy               18      0.157616  3 H  s          
     5      0.147230  1 Be pz                 1      0.137097  1 Be s          

 Vector    6  Occ=0.000000D+00  E= 7.086251D-01
              MO Center=  1.2D-03, -2.4D-03,  2.6D-01, r^2= 1.2D+00
   Bfn.  Coefficient  Atom+Function         Bfn.  Coefficient  Atom+Function  
  ----- ------------  ---------------      ----- ------------  ---------------
     2     -5.330131  1 Be s                 15      2.502111  1 Be dzz        
    10      2.222748  1 Be dxx               13      2.196284  1 Be dyy        
     5      0.766979  1 Be pz                16     -0.593723  2 H  s          
     6      0.522122  1 Be s                 17     -0.301387  2 H  s          
     1      0.222902  1 Be s                 19      0.189937  3 H  s          

 Vector    7  Occ=0.000000D+00  E= 7.245922D-01
              MO Center=  2.8D-02, -2.4D-02, -1.6D-01, r^2= 1.4D+00
   Bfn.  Coefficient  Atom+Function         Bfn.  Coefficient  Atom+Function  
  ----- ------------  ---------------      ----- ------------  ---------------
     2     -3.832789  1 Be s                 15      1.794037  1 Be dzz        
    13      1.619027  1 Be dyy               10      1.581067  1 Be dxx        
     5     -1.007670  1 Be pz                18     -0.784020  3 H  s          
    16      0.336509  2 H  s                 17      0.315182  2 H  s          
     1      0.171838  1 Be s                  3      0.142661  1 Be px         

 Vector    8  Occ=0.000000D+00  E= 7.274983D-01
              MO Center= -1.3D-02,  4.9D-02,  5.6D-02, r^2= 3.7D+00
   Bfn.  Coefficient  Atom+Function         Bfn.  Coefficient  Atom+Function  
  ----- ------------  ---------------      ----- ------------  ---------------
    19      1.966349  3 H  s                  9      1.650933  1 Be pz         
    18     -0.838307  3 H  s                 16     -0.616849  2 H  s          
     6     -0.538618  1 Be s                 17     -0.506501  2 H  s          
    12      0.433618  1 Be dxz                3     -0.359077  1 Be px         
    13     -0.330796  1 Be dyy               15      0.289431  1 Be dzz        

 Vector    9  Occ=0.000000D+00  E= 7.424117D-01
              MO Center=  1.5D-01,  2.1D-01, -2.9D-01, r^2= 2.2D+00
   Bfn.  Coefficient  Atom+Function         Bfn.  Coefficient  Atom+Function  
  ----- ------------  ---------------      ----- ------------  ---------------
    19      1.717514  3 H  s                  2      1.456046  1 Be s          
     9      1.356390  1 Be pz                17     -1.306532  2 H  s          
     3      0.668903  1 Be px                18     -0.626552  3 H  s          
    13     -0.569424  1 Be dyy                6     -0.542347  1 Be s          
    12     -0.482986  1 Be dxz                4      0.474094  1 Be py         

 Vector   10  Occ=0.000000D+00  E= 7.454307D-01
              MO Center=  7.0D-03,  1.2D-01, -6.2D-01, r^2= 2.7D+00
   Bfn.  Coefficient  Atom+Function         Bfn.  Coefficient  Atom+Function  
  ----- ------------  ---------------      ----- ------------  ---------------
     2      1.006937  1 Be s                  6     -0.968136  1 Be s          
     9      0.939947  1 Be pz                14     -0.633089  1 Be dyz        
    17     -0.581812  2 H  s                 10      0.522752  1 Be dxx        
    15     -0.402140  1 Be dzz               18      0.358427  3 H  s          
     4      0.325460  1 Be py                11     -0.264231  1 Be dxy        

 Vector   11  Occ=0.000000D+00  E= 7.513808D-01
              MO Center= -8.4D-02,  3.6D-01,  2.5D-01, r^2= 4.3D+00
   Bfn.  Coefficient  Atom+Function         Bfn.  Coefficient  Atom+Function  
  ----- ------------  ---------------      ----- ------------  ---------------
     9      1.886942  1 Be pz                17     -1.741770  2 H  s          
    19      1.393770  3 H  s                  2     -1.005181  1 Be s          
     8      0.767270  1 Be py                 6      0.679921  1 Be s          
    16      0.657255  2 H  s                  4     -0.528294  1 Be py         
    12      0.475702  1 Be dxz               13      0.325136  1 Be dyy        

 Vector   12  Occ=0.000000D+00  E= 7.939730D-01
              MO Center=  1.8D-01,  1.7D-02,  1.2D-01, r^2= 2.8D+00
   Bfn.  Coefficient  Atom+Function         Bfn.  Coefficient  Atom+Function  
  ----- ------------  ---------------      ----- ------------  ---------------
    12      1.045704  1 Be dxz                9     -0.814452  1 Be pz         
     6     -0.534734  1 Be s                  3      0.465373  1 Be px         
     7     -0.397746  1 Be px                 5      0.384778  1 Be pz         
     2      0.307216  1 Be s                 10      0.292907  1 Be dxx        
    11     -0.286881  1 Be dxy               15     -0.272379  1 Be dzz        

 Vector   13  Occ=0.000000D+00  E= 8.380311D-01
              MO Center=  2.6D-01, -5.5D-02,  1.3D-01, r^2= 2.7D+00
   Bfn.  Coefficient  Atom+Function         Bfn.  Coefficient  Atom+Function  
  ----- ------------  ---------------      ----- ------------  ---------------
    17     -1.135903  2 H  s                  2      1.074743  1 Be s          
    10     -0.848749  1 Be dxx               15      0.720582  1 Be dzz        
     7     -0.507393  1 Be px                 9      0.441149  1 Be pz         
    12      0.297036  1 Be dxz               18     -0.254598  3 H  s          
    13     -0.250043  1 Be dyy               11      0.226139  1 Be dxy        

 Vector   14  Occ=0.000000D+00  E= 8.900341D-01
              MO Center= -4.0D-01, -3.1D-01, -2.1D-01, r^2= 3.1D+00
   Bfn.  Coefficient  Atom+Function         Bfn.  Coefficient  Atom+Function  
  ----- ------------  ---------------      ----- ------------  ---------------
     2      0.971869  1 Be s                  7      0.692411  1 Be px         
     4     -0.569795  1 Be py                 6     -0.510878  1 Be s          
    19     -0.506417  3 H  s                 14      0.365579  1 Be dyz        
    11     -0.309678  1 Be dxy                8      0.299969  1 Be py         
    18      0.181558  3 H  s                 10     -0.178199  1 Be dxx        

 Vector   15  Occ=0.000000D+00  E= 9.081054D-01
              MO Center=  8.1D-02, -2.0D-01,  1.5D-01, r^2= 3.7D+00
   Bfn.  Coefficient  Atom+Function         Bfn.  Coefficient  Atom+Function  
  ----- ------------  ---------------      ----- ------------  ---------------
    17      1.082638  2 H  s                  8      0.845046  1 Be py         
     9     -0.694893  1 Be pz                 2      0.605077  1 Be s          
    16     -0.589862  2 H  s                  4     -0.534101  1 Be py         
    13     -0.535418  1 Be dyy                6     -0.513731  1 Be s          
     7     -0.481156  1 Be px                12     -0.421653  1 Be dxz        

 Vector   16  Occ=0.000000D+00  E= 9.682181D-01
              MO Center=  1.2D-02,  8.0D-02,  3.0D-01, r^2= 2.2D+00
   Bfn.  Coefficient  Atom+Function         Bfn.  Coefficient  Atom+Function  
  ----- ------------  ---------------      ----- ------------  ---------------
    17     -1.544859  2 H  s                  6      1.051228  1 Be s          
     9      0.686732  1 Be pz                13     -0.632956  1 Be dyy        
    16      0.628225  2 H  s                  2     -0.588985  1 Be s          
    14      0.485222  1 Be dyz               10      0.478360  1 Be dxx        
    15      0.347946  1 Be dzz                8     -0.219034  1 Be py         

 Vector   17  Occ=0.000000D+00  E= 9.765778D-01
              MO Center= -2.0D-01,  1.0D-01,  2.5D-02, r^2= 2.5D+00
   Bfn.  Coefficient  Atom+Function         Bfn.  Coefficient  Atom+Function  
  ----- ------------  ---------------      ----- ------------  ---------------
    19     -1.441307  3 H  s                 17      1.080601  2 H  s          
     9     -0.816979  1 Be pz                 3      0.650420  1 Be px         
    14     -0.635580  1 Be dyz               11      0.521320  1 Be dxy        
    18      0.450991  3 H  s                 16     -0.446608  2 H  s          
     6      0.442669  1 Be s                  7     -0.392889  1 Be px         

 Vector   18  Occ=0.000000D+00  E= 1.618044D+00
              MO Center=  2.1D-01, -1.3D-01,  1.7D-01, r^2= 1.7D+00
   Bfn.  Coefficient  Atom+Function         Bfn.  Coefficient  Atom+Function  
  ----- ------------  ---------------      ----- ------------  ---------------
    12     -0.950028  1 Be dxz               19      0.830500  3 H  s          
    17     -0.765612  2 H  s                  9      0.552169  1 Be pz         
     4     -0.522194  1 Be py                11     -0.511656  1 Be dxy        
    14     -0.447895  1 Be dyz               16      0.389485  2 H  s          
    13      0.385678  1 Be dyy                7     -0.326771  1 Be px         

 Vector   19  Occ=0.000000D+00  E= 2.170119D+00
              MO Center= -2.0D-01, -2.3D-01, -6.2D-02, r^2= 1.4D+00
   Bfn.  Coefficient  Atom+Function         Bfn.  Coefficient  Atom+Function  
  ----- ------------  ---------------      ----- ------------  ---------------
    11      1.211481  1 Be dxy                6     -0.679149  1 Be s          
    14      0.620167  1 Be dyz               15     -0.472714  1 Be dzz        
    10      0.371273  1 Be dxx                4     -0.333508  1 Be py         
     2      0.309417  1 Be s                 13      0.278977  1 Be dyy        
    16      0.202891  2 H  s                  3     -0.184183  1 Be px         


 Task  times  cpu:      229.7s     wall:      247.7s


                                NWChem Input Module
                                -------------------



                                NWChem WFN1 Module
                                ------------------



      Superposition of Atomic Density Guess
      -------------------------------------

 Sum of atomic energies:         -15.56322911

      Non-variational initial energy
      ------------------------------

 Total energy =     -15.619219
 1-e energy   =     -26.620541
 2-e energy   =       7.630027
 HOMO         =      -0.344167
 LUMO         =       0.058550

 iteration              energy           error          err Na          err Nb          err Ca          err Cb
 ---------              ------           -----          ------          ------          ------          ------
         1        -18.71533267        0.900531        0.002310        0.002310        0.447955        0.447955
         2        -18.71799420        0.908624        0.004243        0.004243        0.450069        0.450069
         3        -18.73608761        0.714624        0.004344        0.004344        0.352968        0.352968
         4        -18.73833910        0.709783        0.001630        0.001630        0.353262        0.353262
         5        -18.74582550        0.355090        0.001693        0.001693        0.175852        0.175852
         6        -18.74711472        0.356486        0.002020        0.002020        0.176223        0.176223
         7        -18.75020264        0.237452        0.002025        0.002025        0.116701        0.116701
         8        -18.75138290        0.236096        0.001267        0.001267        0.116781        0.116781
         9        -18.75337027        0.180021        0.001278        0.001278        0.088732        0.088732
        10        -18.75417958        0.180188        0.001225        0.001225        0.088869        0.088869
        11        -18.75554270        0.152345        0.001230        0.001230        0.074942        0.074942
        12        -18.75629633        0.152033        0.001009        0.001009        0.075007        0.075007
        13        -18.75728259        0.132303        0.001015        0.001015        0.065137        0.065137
        14        -18.75789383        0.132239        0.000914        0.000914        0.065206        0.065206
        15        -18.75863479        0.114756        0.000917        0.000917        0.056461        0.056461
        16        -18.75919344        0.114647        0.000815        0.000815        0.056508        0.056508
        17        -18.75979097        0.100709        0.000818        0.000818        0.049536        0.049536
        18        -18.76027300        0.100594        0.000721        0.000721        0.049577        0.049577
        19        -18.76076889        0.087718        0.000723        0.000723        0.043136        0.043136
        20        -18.76120286        0.087662        0.000659        0.000659        0.043172        0.043172
        21        -18.76162014        0.077530        0.000661        0.000661        0.038105        0.038105
        22        -18.76200370        0.077421        0.000579        0.000579        0.038131        0.038131
        23        -18.76235859        0.068243        0.000581        0.000581        0.033541        0.033541
        24        -18.76270211        0.068208        0.000534        0.000534        0.033570        0.033570
        25        -18.76300535        0.061096        0.000535        0.000535        0.030013        0.030013
        26        -18.76331268        0.061006        0.000472        0.000472        0.030032        0.030032
        27        -18.76357377        0.054628        0.000473        0.000473        0.026841        0.026841
        28        -18.76384907        0.054603        0.000435        0.000435        0.026866        0.026866
        29        -18.76407462        0.049647        0.000436        0.000436        0.024387        0.024387
        30        -18.76432281        0.049577        0.000388        0.000388        0.024401        0.024401
        31        -18.76451894        0.045115        0.000388        0.000388        0.022169        0.022169
        32        -18.76474177        0.045096        0.000358        0.000358        0.022191        0.022191
        33        -18.76491282        0.041573        0.000358        0.000358        0.020428        0.020428
        34        -18.76511487        0.041520        0.000321        0.000321        0.020439        0.020439
        35        -18.76526491        0.038308        0.000322        0.000322        0.018832        0.018832
        36        -18.76544684        0.038292        0.000296        0.000296        0.018851        0.018851
        37        -18.76557882        0.035702        0.000296        0.000296        0.017555        0.017555
        38        -18.76574456        0.035662        0.000268        0.000268        0.017563        0.017563
        39        -18.76586129        0.033263        0.000268        0.000268        0.016363        0.016363
        40        -18.76601094        0.033249        0.000246        0.000246        0.016378        0.016378
        41        -18.76611444        0.031276        0.000246        0.000246        0.015391        0.015391
        42        -18.76625134        0.031245        0.000225        0.000225        0.015397        0.015397
        43        -18.76634358        0.029391        0.000225        0.000225        0.014470        0.014470
        44        -18.76646753        0.029378        0.000206        0.000206        0.014483        0.014483
        45        -18.76654994        0.027828        0.000206        0.000206        0.013708        0.013708
        46        -18.76666373        0.027805        0.000190        0.000190        0.013712        0.013712
        47        -18.76673772        0.026333        0.000191        0.000191        0.012976        0.012976
        48        -18.76684098        0.026321        0.000174        0.000174        0.012987        0.012987
        49        -18.76690729        0.025034        0.000174        0.000174        0.012343        0.012343
        50        -18.76700241        0.025015        0.000162        0.000162        0.012346        0.012346
        51        -18.76706282        0.023916        0.000162        0.000162        0.011796        0.011796
        52        -18.76714929        0.023903        0.000147        0.000147        0.011805        0.011805
        53        -18.76714929        0.016883        0.000147        0.000147        0.008295        0.008295
        54        -18.76722905        0.016875        0.000138        0.000138        0.008299        0.008299
        55        -18.76728405        0.016018        0.000138        0.000138        0.007870        0.007870
        56        -18.76735674        0.016011        0.000125        0.000125        0.007881        0.007881
        57        -18.76740669        0.015325        0.000125        0.000125        0.007538        0.007538
        58        -18.76747406        0.015319        0.000119        0.000119        0.007541        0.007541
        59        -18.76751966        0.014688        0.000119        0.000119        0.007225        0.007225
        60        -18.76758111        0.014680        0.000107        0.000107        0.007233        0.007233
        61        -18.76762285        0.014173        0.000107        0.000107        0.006979        0.006979
        62        -18.76767994        0.014169        0.000103        0.000103        0.006982        0.006982
        63        -18.76771832        0.013713        0.000103        0.000103        0.006754        0.006754
        64        -18.76777046        0.013705        0.000092        0.000092        0.006761        0.006761
        65        -18.76780582        0.013339        0.000092        0.000092        0.006578        0.006578
        66        -18.76785439        0.013337        0.000089        0.000089        0.006580        0.006580
        67        -18.76788713        0.013021        0.000089        0.000089        0.006422        0.006422
        68        -18.76793153        0.013013        0.000079        0.000079        0.006427        0.006427
        69        -18.76796136        0.012763        0.000079        0.000079        0.006302        0.006302
        70        -18.76800282        0.012762        0.000077        0.000077        0.006304        0.006304
        71        -18.76803167        0.012556        0.000077        0.000077        0.006200        0.006200
        72        -18.76806960        0.012547        0.000068        0.000068        0.006205        0.006205
        73        -18.76809589        0.012387        0.000068        0.000068        0.006125        0.006125
        74        -18.76813139        0.012387        0.000068        0.000068        0.006126        0.006126
        75        -18.76813139        0.014796        0.000068        0.000068        0.007330        0.007330
        76        -18.76816385        0.014787        0.000059        0.000059        0.007334        0.007334
        77        -18.76818847        0.014432        0.000059        0.000059        0.007157        0.007157
        78        -18.76821895        0.014433        0.000059        0.000059        0.007157        0.007157
        79        -18.76824250        0.014122        0.000059        0.000059        0.007002        0.007002
        80        -18.76827041        0.014113        0.000052        0.000052        0.007005        0.007005
        81        -18.76829245        0.013768        0.000052        0.000052        0.006832        0.006832
        82        -18.76831871        0.013769        0.000052        0.000052        0.006832        0.006832
        83        -18.76834095        0.013494        0.000052        0.000052        0.006695        0.006695
        84        -18.76836502        0.013485        0.000045        0.000045        0.006698        0.006698
        85        -18.76838590        0.013165        0.000045        0.000045        0.006537        0.006537
        86        -18.76840860        0.013168        0.000046        0.000046        0.006538        0.006538
        87        -18.76842736        0.012908        0.000046        0.000046        0.006408        0.006408
        88        -18.76844817        0.012900        0.000040        0.000040        0.006410        0.006410
        89        -18.76844817        0.007652        0.000040        0.000040        0.003786        0.003786
        90        -18.76846782        0.007657        0.000041        0.000041        0.003788        0.003788
        91        -18.76848567        0.007588        0.000041        0.000041        0.003753        0.003753
        92        -18.76850369        0.007582        0.000035        0.000035        0.003756        0.003756
        93        -18.76852121        0.007554        0.000035        0.000035        0.003742        0.003742
        94        -18.76853829        0.007559        0.000036        0.000036        0.003743        0.003743
        95        -18.76855468        0.007546        0.000036        0.000036        0.003737        0.003737
        96        -18.76857035        0.007540        0.000031        0.000031        0.003739        0.003739
        97        -18.76858647        0.007585        0.000031        0.000031        0.003762        0.003762
        98        -18.76860136        0.007590        0.000032        0.000032        0.003763        0.003763
        99        -18.76861736        0.007610        0.000032        0.000032        0.003773        0.003773
       100        -18.76863103        0.007604        0.000027        0.000027        0.003775        0.003775
       101        -18.76863103        0.003963        0.000027        0.000027        0.001954        0.001954
       102        -18.76864403        0.003969        0.000029        0.000029        0.001956        0.001956
       103        -18.76865892        0.003806        0.000029        0.000029        0.001874        0.001874
       104        -18.76867086        0.003801        0.000024        0.000024        0.001876        0.001876
       105        -18.76868528        0.003656        0.000024        0.000024        0.001804        0.001804
       106        -18.76869669        0.003662        0.000026        0.000026        0.001805        0.001805
       107        -18.76871112        0.003516        0.000026        0.000026        0.001732        0.001732
       108        -18.76872159        0.003511        0.000022        0.000022        0.001734        0.001734
       109        -18.76873606        0.003385        0.000022        0.000022        0.001671        0.001671
       110        -18.76874610        0.003391        0.000023        0.000023        0.001672        0.001672
       111        -18.76876399        0.003229        0.000023        0.000023        0.001591        0.001591
       112        -18.76877322        0.003224        0.000019        0.000019        0.001593        0.001593
       113        -18.76879058        0.003090        0.000019        0.000019        0.001526        0.001526
       114        -18.76879945        0.003096        0.000021        0.000021        0.001527        0.001527
       115        -18.76882345        0.002929        0.000021        0.000021        0.001443        0.001443
       116        -18.76883161        0.002924        0.000017        0.000017        0.001445        0.001445
       117        -18.76885492        0.002756        0.000017        0.000017        0.001361        0.001361
       118        -18.76886278        0.002762        0.000019        0.000019        0.001362        0.001362
       119        -18.76887924        0.002681        0.000019        0.000019        0.001321        0.001321
       120        -18.76888646        0.002677        0.000016        0.000016        0.001323        0.001323
       121        -18.76890274        0.002569        0.000016        0.000016        0.001269        0.001269
       122        -18.76890973        0.002574        0.000017        0.000017        0.001270        0.001270
       123        -18.76892781        0.002508        0.000017        0.000017        0.001237        0.001237
       124        -18.76893424        0.002504        0.000014        0.000014        0.001238        0.001238
       125        -18.76895202        0.002393        0.000014        0.000014        0.001182        0.001182
       126        -18.76895826        0.002397        0.000016        0.000016        0.001183        0.001183
       127        -18.76897111        0.002348        0.000016        0.000016        0.001158        0.001158
       128        -18.76897685        0.002344        0.000013        0.000013        0.001159        0.001159
       129        -18.76898899        0.002285        0.000013        0.000013        0.001130        0.001130
       130        -18.76899458        0.002289        0.000014        0.000014        0.001130        0.001130
       131        -18.76900761        0.002247        0.000014        0.000014        0.001109        0.001109
       132        -18.76901276        0.002242        0.000011        0.000011        0.001110        0.001110
       133        -18.76902517        0.002183        0.000011        0.000011        0.001080        0.001080
       134        -18.76903020        0.002188        0.000013        0.000013        0.001081        0.001081
       135        -18.76904365        0.002157        0.000013        0.000013        0.001065        0.001065
       136        -18.76904828        0.002152        0.000010        0.000010        0.001066        0.001066
       137        -18.76906174        0.002087        0.000010        0.000010        0.001033        0.001033
       138        -18.76906629        0.002091        0.000012        0.000012        0.001033        0.001033
       139        -18.76907979        0.002066        0.000012        0.000012        0.001021        0.001021
       140        -18.76908398        0.002062        0.000009        0.000009        0.001021        0.001021
       141        -18.76909741        0.001996        0.000009        0.000009        0.000989        0.000989
       142        -18.76910155        0.002000        0.000011        0.000011        0.000989        0.000989
       143        -18.76911958        0.001995        0.000011        0.000011        0.000986        0.000986
       144        -18.76912339        0.001991        0.000009        0.000009        0.000987        0.000987
       145        -18.76914144        0.001888        0.000009        0.000009        0.000935        0.000935
       146        -18.76914522        0.001891        0.000010        0.000010        0.000935        0.000935
       147        -18.76917447        0.001933        0.000010        0.000010        0.000956        0.000956
       148        -18.76917796        0.001929        0.000008        0.000008        0.000957        0.000957
       149        -18.76920738        0.001744        0.000008        0.000008        0.000864        0.000864
       150        -18.76921084        0.001747        0.000010        0.000010        0.000864        0.000864
       151        -18.76922727        0.001760        0.000010        0.000010        0.000870        0.000870
       152        -18.76923045        0.001755        0.000007        0.000007        0.000870        0.000870
       153        -18.76923045        0.001162        0.000007        0.000007        0.000574        0.000574
       154        -18.76923364        0.001165        0.000009        0.000009        0.000573        0.000573
       155        -18.76923364        0.000981        0.000009        0.000009        0.000481        0.000481
       156        -18.76923656        0.000976        0.000007        0.000007        0.000482        0.000482
       157        -18.76925303        0.000897        0.000007        0.000007        0.000442        0.000442
       158        -18.76925598        0.000898        0.000008        0.000008        0.000441        0.000441
       159        -18.76927917        0.000960        0.000008        0.000008        0.000472        0.000472
       160        -18.76928189        0.000956        0.000006        0.000006        0.000472        0.000472
       161        -18.76930508        0.000820        0.000006        0.000006        0.000404        0.000404
       162        -18.76930783        0.000821        0.000008        0.000008        0.000403        0.000403
       163        -18.76941719        0.001443        0.000008        0.000008        0.000714        0.000714
       164        -18.76941981        0.001439        0.000006        0.000006        0.000714        0.000714
       165        -18.76953693        0.000581        0.000006        0.000006        0.000285        0.000285
       166        -18.76953948        0.000582        0.000007        0.000007        0.000284        0.000284
       167        -18.76964091        0.001149        0.000007        0.000007        0.000567        0.000567
       168        -18.76964325        0.001145        0.000005        0.000005        0.000567        0.000567
       169        -18.76973269        0.000521        0.000005        0.000005        0.000255        0.000255
       170        -18.76973518        0.000521        0.000007        0.000007        0.000254        0.000254
       171        -18.76977192        0.000627        0.000007        0.000007        0.000307        0.000307
       172        -18.76977421        0.000623        0.000005        0.000005        0.000307        0.000307
       173        -18.76979941        0.000512        0.000005        0.000005        0.000251        0.000251
       174        -18.76980166        0.000513        0.000006        0.000006        0.000250        0.000250
       175        -18.76982100        0.000563        0.000006        0.000006        0.000275        0.000275
       176        -18.76982308        0.000559        0.000004        0.000004        0.000275        0.000275
       177        -18.76982308        0.000568        0.000004        0.000004        0.000280        0.000280
       178        -18.76982519        0.000569        0.000006        0.000006        0.000279        0.000279
       179        -18.76984258        0.000519        0.000006        0.000006        0.000254        0.000254
       180        -18.76984452        0.000515        0.000004        0.000004        0.000254        0.000254
       181        -18.76985932        0.000534        0.000004        0.000004        0.000263        0.000263
       182        -18.76986133        0.000535        0.000006        0.000006        0.000262        0.000262
       183        -18.76987608        0.000512        0.000006        0.000006        0.000251        0.000251
       184        -18.76987791        0.000509        0.000004        0.000004        0.000251        0.000251
       185        -18.76989358        0.000535        0.000004        0.000004        0.000264        0.000264
       186        -18.76989552        0.000536        0.000005        0.000005        0.000263        0.000263
       187        -18.76991028        0.000526        0.000005        0.000005        0.000258        0.000258
       188        -18.76991205        0.000523        0.000003        0.000003        0.000258        0.000258
       189        -18.76992641        0.000522        0.000003        0.000003        0.000258        0.000258
       190        -18.76992829        0.000523        0.000005        0.000005        0.000257        0.000257
       191        -18.76994279        0.000538        0.000005        0.000005        0.000264        0.000264
       192        -18.76994450        0.000534        0.000003        0.000003        0.000264        0.000264
       193        -18.76995898        0.000528        0.000003        0.000003        0.000261        0.000261
       194        -18.76996082        0.000530        0.000005        0.000005        0.000260        0.000260
       195        -18.76997524        0.000539        0.000005        0.000005        0.000265        0.000265
       196        -18.76997690        0.000535        0.000003        0.000003        0.000265        0.000265
       197        -18.76999119        0.000536        0.000003        0.000003        0.000265        0.000265
       198        -18.76999300        0.000538        0.000005        0.000005        0.000264        0.000264
       199        -18.77000742        0.000550        0.000005        0.000005        0.000270        0.000270
       200        -18.77000905        0.000546        0.000003        0.000003        0.000270        0.000270
       201        -18.77002335        0.000556        0.000003        0.000003        0.000275        0.000275
       202        -18.77002515        0.000558        0.000004        0.000004        0.000274        0.000274
       203        -18.77003938        0.000557        0.000004        0.000004        0.000274        0.000274
       204        -18.77004098        0.000553        0.000002        0.000002        0.000274        0.000274
       205        -18.77005546        0.000570        0.000002        0.000002        0.000283        0.000283
       206        -18.77005727        0.000572        0.000004        0.000004        0.000282        0.000282
       207        -18.77007145        0.000591        0.000004        0.000004        0.000291        0.000291
       208        -18.77007305        0.000587        0.000002        0.000002        0.000291        0.000291
       209        -18.77008739        0.000586        0.000002        0.000002        0.000291        0.000291
       210        -18.77008923        0.000588        0.000004        0.000004        0.000290        0.000290
       211        -18.77010349        0.000622        0.000004        0.000004        0.000307        0.000307
       212        -18.77010510        0.000618        0.000002        0.000002        0.000307        0.000307
       213        -18.77011979        0.000607        0.000002        0.000002        0.000302        0.000302
       214        -18.77012167        0.000609        0.000004        0.000004        0.000301        0.000301
       215        -18.77013632        0.000652        0.000004        0.000004        0.000322        0.000322
       216        -18.77013794        0.000647        0.000002        0.000002        0.000322        0.000322
       217        -18.77015255        0.000639        0.000002        0.000002        0.000318        0.000318
       218        -18.77015452        0.000642        0.000004        0.000004        0.000317        0.000317
       219        -18.77016899        0.000676        0.000004        0.000004        0.000334        0.000334
       220        -18.77017066        0.000671        0.000001        0.000001        0.000334        0.000334
[...]
    13      0.043002  1 Be dyy        

 Vector    7  Occ=1.547683D-01  E=-6.636157D-01
              MO Center= -2.4D-15,  1.1D-14,  1.9D-12, r^2= 5.9D+00
   Bfn.  Coefficient  Atom+Function         Bfn.  Coefficient  Atom+Function  
  ----- ------------  ---------------      ----- ------------  ---------------
     9      2.122251  1 Be pz                17     -0.812457  2 H  s          
    19      0.812457  3 H  s                  5     -0.685935  1 Be pz         
    16     -0.093794  2 H  s                 18      0.093794  3 H  s          

 Vector    8  Occ=1.256458D-01  E=-6.578667D-01
              MO Center= -6.0D-12, -3.6D-12, -8.7D-13, r^2= 4.0D+00
   Bfn.  Coefficient  Atom+Function         Bfn.  Coefficient  Atom+Function  
  ----- ------------  ---------------      ----- ------------  ---------------
     2      2.082879  1 Be s                  6     -1.671423  1 Be s          
    17     -0.227903  2 H  s                 19     -0.227903  3 H  s          
    10     -0.117394  1 Be dxx               13     -0.117394  1 Be dyy        
    16      0.074520  2 H  s                 18      0.074520  3 H  s          
    15      0.055279  1 Be dzz        

 Vector    9  Occ=1.155557D-01  E=-6.504888D-01
              MO Center=  1.2D-11, -1.0D-11, -7.4D-11, r^2= 3.9D+00
   Bfn.  Coefficient  Atom+Function         Bfn.  Coefficient  Atom+Function  
  ----- ------------  ---------------      ----- ------------  ---------------
     3      0.913440  1 Be px                 7     -0.910324  1 Be px         
     4      0.825656  1 Be py                 8     -0.822963  1 Be py         

 Vector   10  Occ=1.155566D-01  E=-6.470242D-01
              MO Center= -6.8D-11, -3.0D-11, -1.0D-10, r^2= 3.9D+00
   Bfn.  Coefficient  Atom+Function         Bfn.  Coefficient  Atom+Function  
  ----- ------------  ---------------      ----- ------------  ---------------
     4      0.913188  1 Be py                 8     -0.910580  1 Be py         
     3     -0.825665  1 Be px                 7      0.822955  1 Be px         

 Vector   11  Occ=1.000984D-01  E=-6.442193D-01
              MO Center= -5.4D-13, -1.8D-13, -1.8D-13, r^2= 3.4D+00
   Bfn.  Coefficient  Atom+Function         Bfn.  Coefficient  Atom+Function  
  ----- ------------  ---------------      ----- ------------  ---------------
    17     -2.075109  2 H  s                 19      2.075109  3 H  s          
     9      1.838261  1 Be pz                 5      1.294907  1 Be pz         
    16     -0.105468  2 H  s                 18      0.105468  3 H  s          

 Vector   12  Occ=3.922153D-13  E=-6.299285D-01
              MO Center=  5.0D-12, -5.8D-12, -3.1D-14, r^2= 3.4D+00
   Bfn.  Coefficient  Atom+Function         Bfn.  Coefficient  Atom+Function  
  ----- ------------  ---------------      ----- ------------  ---------------
     6     -1.879988  1 Be s                 17      1.418625  2 H  s          
    19      1.418625  3 H  s                 15     -0.700963  1 Be dzz        
     2      0.609606  1 Be s                 16     -0.531375  2 H  s          
    18     -0.531375  3 H  s                 10      0.289016  1 Be dxx        
    13      0.288794  1 Be dyy                1     -0.045204  1 Be s          

 Vector   13  Occ=9.825211D-23  E=-5.034781D-01
              MO Center= -1.3D-12, -1.3D-12,  2.3D-10, r^2= 1.2D+00
   Bfn.  Coefficient  Atom+Function         Bfn.  Coefficient  Atom+Function  
  ----- ------------  ---------------      ----- ------------  ---------------
    14     -1.716784  1 Be dyz               12     -0.228822  1 Be dxz        

 Vector   14  Occ=7.509351D-21  E=-5.033930D-01
              MO Center= -2.0D-12, -5.0D-12, -1.3D-10, r^2= 1.2D+00
   Bfn.  Coefficient  Atom+Function         Bfn.  Coefficient  Atom+Function  
  ----- ------------  ---------------      ----- ------------  ---------------
    12     -1.715820  1 Be dxz               14      0.229273  1 Be dyz        
    10     -0.027463  1 Be dxx               13      0.027064  1 Be dyy        

 Vector   15  Occ=3.034914D-23  E=-4.194515D-01
              MO Center= -1.1D-10, -1.5D-10,  3.0D-12, r^2= 1.2D+00
   Bfn.  Coefficient  Atom+Function         Bfn.  Coefficient  Atom+Function  
  ----- ------------  ---------------      ----- ------------  ---------------
    10      0.864561  1 Be dxx               13     -0.865047  1 Be dyy        
    11      0.072959  1 Be dxy               12     -0.055266  1 Be dxz        

 Vector   16  Occ=4.584446D-23  E=-4.194361D-01
              MO Center= -6.5D-11,  4.8D-11,  5.8D-13, r^2= 1.2D+00
   Bfn.  Coefficient  Atom+Function         Bfn.  Coefficient  Atom+Function  
  ----- ------------  ---------------      ----- ------------  ---------------
    11     -1.730384  1 Be dxy               10      0.036104  1 Be dxx        
    13     -0.036127  1 Be dyy        

 Vector   17  Occ=1.012762D-23  E=-1.919366D-01
              MO Center= -1.9D-12,  1.4D-13, -2.1D-13, r^2= 3.6D+00
   Bfn.  Coefficient  Atom+Function         Bfn.  Coefficient  Atom+Function  
  ----- ------------  ---------------      ----- ------------  ---------------
    17     -2.282434  2 H  s                 19      2.282434  3 H  s          
     9      2.057801  1 Be pz                16      1.065697  2 H  s          
    18     -1.065697  3 H  s                  5     -0.235027  1 Be pz         

 Vector   18  Occ=1.883165D-24  E= 2.971654D-01
              MO Center=  3.8D-13, -4.7D-13,  2.6D-14, r^2= 1.7D+00
   Bfn.  Coefficient  Atom+Function         Bfn.  Coefficient  Atom+Function  
  ----- ------------  ---------------      ----- ------------  ---------------
    15      0.985363  1 Be dzz               16     -0.971350  2 H  s          
    18     -0.971350  3 H  s                 10     -0.779009  1 Be dxx        
    13     -0.778977  1 Be dyy                2      0.712792  1 Be s          
    17      0.374195  2 H  s                 19      0.374195  3 H  s          
     6     -0.132518  1 Be s                  1     -0.095100  1 Be s          

 Vector   19  Occ=1.524866D-09  E= 1.405296D+00
              MO Center=  2.4D-13, -5.5D-13,  2.0D-15, r^2= 9.2D-01
   Bfn.  Coefficient  Atom+Function         Bfn.  Coefficient  Atom+Function  
  ----- ------------  ---------------      ----- ------------  ---------------
     2      6.721503  1 Be s                 15     -3.093172  1 Be dzz        
    10     -2.781106  1 Be dxx               13     -2.780985  1 Be dyy        
     6     -0.332826  1 Be s                  1     -0.300547  1 Be s          
    16      0.281059  2 H  s                 18      0.281059  3 H  s          
    17     -0.155270  2 H  s                 19     -0.155270  3 H  s          


                     WFN1 Final Beta Natural Orbital Analysis
                     ----------------------------------------

 Vector    1  Occ=1.000000D+00  E=-3.297307D+00
              MO Center= -1.1D-13, -5.7D-14,  7.9D-14, r^2= 6.6D-02
   Bfn.  Coefficient  Atom+Function         Bfn.  Coefficient  Atom+Function  
  ----- ------------  ---------------      ----- ------------  ---------------
     1     -0.996677  1 Be s                  2     -0.030572  1 Be s          

 Vector    2  Occ=3.622984D-01  E=-9.463433D-01
              MO Center= -5.1D-12, -3.0D-12,  1.2D-11, r^2= 2.0D+00
   Bfn.  Coefficient  Atom+Function         Bfn.  Coefficient  Atom+Function  
  ----- ------------  ---------------      ----- ------------  ---------------
     2      0.253720  1 Be s                 17      0.245899  2 H  s          
    19      0.245899  3 H  s                 16      0.238389  2 H  s          
    18      0.238389  3 H  s                  1     -0.172540  1 Be s          
     6      0.148724  1 Be s                 15      0.091542  1 Be dzz        

 Vector    3  Occ=3.526508D-01  E=-9.312079D-01
              MO Center= -1.2D-12, -5.9D-13, -1.3D-11, r^2= 2.1D+00
   Bfn.  Coefficient  Atom+Function         Bfn.  Coefficient  Atom+Function  
  ----- ------------  ---------------      ----- ------------  ---------------
     5     -0.389802  1 Be pz                16     -0.276859  2 H  s          
    18      0.276859  3 H  s                 17     -0.258009  2 H  s          
    19      0.258009  3 H  s          

 Vector    4  Occ=2.346354D-01  E=-7.005243D-01
              MO Center=  2.3D-10,  1.6D-10,  8.6D-11, r^2= 2.5D+00
   Bfn.  Coefficient  Atom+Function         Bfn.  Coefficient  Atom+Function  
  ----- ------------  ---------------      ----- ------------  ---------------
     8     -0.452451  1 Be py                 4     -0.445660  1 Be py         
     7      0.315325  1 Be px                 3      0.310481  1 Be px         

 Vector    5  Occ=2.346419D-01  E=-6.740570D-01
              MO Center=  3.0D-12, -6.4D-12, -1.4D-11, r^2= 2.5D+00
   Bfn.  Coefficient  Atom+Function         Bfn.  Coefficient  Atom+Function  
  ----- ------------  ---------------      ----- ------------  ---------------
     7     -0.453019  1 Be px                 3     -0.445091  1 Be px         
     8     -0.315378  1 Be py                 4     -0.310428  1 Be py         

 Vector    6  Occ=2.041487D-01  E=-6.686801D-01
              MO Center=  7.4D-12,  4.4D-12,  1.5D-13, r^2= 3.2D+00
   Bfn.  Coefficient  Atom+Function         Bfn.  Coefficient  Atom+Function  
  ----- ------------  ---------------      ----- ------------  ---------------
     6      1.576441  1 Be s                 17     -0.912878  2 H  s          
    19     -0.912878  3 H  s                 16     -0.194143  2 H  s          
    18     -0.194143  3 H  s                  2      0.169686  1 Be s          
     1     -0.135528  1 Be s                 10      0.042922  1 Be dxx        
    13      0.043002  1 Be dyy        

 Vector    7  Occ=1.547683D-01  E=-6.636157D-01
              MO Center= -2.4D-15,  1.1D-14,  1.9D-12, r^2= 5.9D+00
   Bfn.  Coefficient  Atom+Function         Bfn.  Coefficient  Atom+Function  
  ----- ------------  ---------------      ----- ------------  ---------------
     9      2.122251  1 Be pz                17     -0.812457  2 H  s          
    19      0.812457  3 H  s                  5     -0.685935  1 Be pz         
    16     -0.093794  2 H  s                 18      0.093794  3 H  s          

 Vector    8  Occ=1.256458D-01  E=-6.578667D-01
              MO Center= -6.0D-12, -3.6D-12, -8.7D-13, r^2= 4.0D+00
   Bfn.  Coefficient  Atom+Function         Bfn.  Coefficient  Atom+Function  
  ----- ------------  ---------------      ----- ------------  ---------------
     2      2.082879  1 Be s                  6     -1.671423  1 Be s          
    17     -0.227903  2 H  s                 19     -0.227903  3 H  s          
    10     -0.117394  1 Be dxx               13     -0.117394  1 Be dyy        
    16      0.074520  2 H  s                 18      0.074520  3 H  s          
    15      0.055279  1 Be dzz        

 Vector    9  Occ=1.155557D-01  E=-6.504888D-01
              MO Center=  1.2D-11, -1.0D-11, -7.4D-11, r^2= 3.9D+00
   Bfn.  Coefficient  Atom+Function         Bfn.  Coefficient  Atom+Function  
  ----- ------------  ---------------      ----- ------------  ---------------
     3      0.913440  1 Be px                 7     -0.910324  1 Be px         
     4      0.825656  1 Be py                 8     -0.822963  1 Be py         

 Vector   10  Occ=1.155566D-01  E=-6.470242D-01
              MO Center= -6.8D-11, -3.0D-11, -1.0D-10, r^2= 3.9D+00
   Bfn.  Coefficient  Atom+Function         Bfn.  Coefficient  Atom+Function  
  ----- ------------  ---------------      ----- ------------  ---------------
     4      0.913188  1 Be py                 8     -0.910580  1 Be py         
     3     -0.825665  1 Be px                 7      0.822955  1 Be px         

 Vector   11  Occ=1.000984D-01  E=-6.442193D-01
              MO Center= -5.4D-13, -1.8D-13, -1.8D-13, r^2= 3.4D+00
   Bfn.  Coefficient  Atom+Function         Bfn.  Coefficient  Atom+Function  
  ----- ------------  ---------------      ----- ------------  ---------------
    17     -2.075109  2 H  s                 19      2.075109  3 H  s          
     9      1.838261  1 Be pz                 5      1.294907  1 Be pz         
    16     -0.105468  2 H  s                 18      0.105468  3 H  s          

 Vector   12  Occ=3.922153D-13  E=-6.299285D-01
              MO Center=  5.0D-12, -5.8D-12, -3.1D-14, r^2= 3.4D+00
   Bfn.  Coefficient  Atom+Function         Bfn.  Coefficient  Atom+Function  
  ----- ------------  ---------------      ----- ------------  ---------------
     6     -1.879988  1 Be s                 17      1.418625  2 H  s          
    19      1.418625  3 H  s                 15     -0.700963  1 Be dzz        
     2      0.609606  1 Be s                 16     -0.531375  2 H  s          
    18     -0.531375  3 H  s                 10      0.289016  1 Be dxx        
    13      0.288794  1 Be dyy                1     -0.045204  1 Be s          

 Vector   13  Occ=9.825211D-23  E=-5.034781D-01
              MO Center= -1.3D-12, -1.3D-12,  2.3D-10, r^2= 1.2D+00
   Bfn.  Coefficient  Atom+Function         Bfn.  Coefficient  Atom+Function  
  ----- ------------  ---------------      ----- ------------  ---------------
    14     -1.716784  1 Be dyz               12     -0.228822  1 Be dxz        

 Vector   14  Occ=7.509351D-21  E=-5.033930D-01
              MO Center= -2.0D-12, -5.0D-12, -1.3D-10, r^2= 1.2D+00
   Bfn.  Coefficient  Atom+Function         Bfn.  Coefficient  Atom+Function  
  ----- ------------  ---------------      ----- ------------  ---------------
    12     -1.715820  1 Be dxz               14      0.229273  1 Be dyz        
    10     -0.027463  1 Be dxx               13      0.027064  1 Be dyy        

 Vector   15  Occ=3.034914D-23  E=-4.194515D-01
              MO Center= -1.1D-10, -1.5D-10,  3.0D-12, r^2= 1.2D+00
   Bfn.  Coefficient  Atom+Function         Bfn.  Coefficient  Atom+Function  
  ----- ------------  ---------------      ----- ------------  ---------------
    10      0.864561  1 Be dxx               13     -0.865047  1 Be dyy        
    11      0.072959  1 Be dxy               12     -0.055266  1 Be dxz        

 Vector   16  Occ=4.584446D-23  E=-4.194361D-01
              MO Center= -6.5D-11,  4.8D-11,  5.8D-13, r^2= 1.2D+00
   Bfn.  Coefficient  Atom+Function         Bfn.  Coefficient  Atom+Function  
  ----- ------------  ---------------      ----- ------------  ---------------
    11     -1.730384  1 Be dxy               10      0.036104  1 Be dxx        
    13     -0.036127  1 Be dyy        

 Vector   17  Occ=1.012762D-23  E=-1.919366D-01
              MO Center= -1.9D-12,  1.4D-13, -2.1D-13, r^2= 3.6D+00
   Bfn.  Coefficient  Atom+Function         Bfn.  Coefficient  Atom+Function  
  ----- ------------  ---------------      ----- ------------  ---------------
    17     -2.282434  2 H  s                 19      2.282434  3 H  s          
     9      2.057801  1 Be pz                16      1.065697  2 H  s          
    18     -1.065697  3 H  s                  5     -0.235027  1 Be pz         

 Vector   18  Occ=1.883165D-24  E= 2.971654D-01
              MO Center=  3.8D-13, -4.7D-13,  2.6D-14, r^2= 1.7D+00
   Bfn.  Coefficient  Atom+Function         Bfn.  Coefficient  Atom+Function  
  ----- ------------  ---------------      ----- ------------  ---------------
    15      0.985363  1 Be dzz               16     -0.971350  2 H  s          
    18     -0.971350  3 H  s                 10     -0.779009  1 Be dxx        
    13     -0.778977  1 Be dyy                2      0.712792  1 Be s          
    17      0.374195  2 H  s                 19      0.374195  3 H  s          
     6     -0.132518  1 Be s                  1     -0.095100  1 Be s          

 Vector   19  Occ=1.524866D-09  E= 1.405296D+00
              MO Center=  2.4D-13, -5.5D-13,  2.0D-15, r^2= 9.2D-01
   Bfn.  Coefficient  Atom+Function         Bfn.  Coefficient  Atom+Function  
  ----- ------------  ---------------      ----- ------------  ---------------
     2      6.721503  1 Be s                 15     -3.093172  1 Be dzz        
    10     -2.781106  1 Be dxx               13     -2.780985  1 Be dyy        
     6     -0.332826  1 Be s                  1     -0.300547  1 Be s          
    16      0.281059  2 H  s                 18      0.281059  3 H  s          
    17     -0.155270  2 H  s                 19     -0.155270  3 H  s          


 Task  times  cpu:     2931.6s     wall:     3160.5s


                                NWChem Input Module
                                -------------------


 Summary of allocated global arrays
-----------------------------------
  No active global arrays



                         GA Statistics for process    0
                         ------------------------------

       create   destroy   get      put      acc     scatter   gather  read&inc
calls:   90       90     3.29e+08 6.78e+04 1.93e+08    0        0       28     
number of processes/call 1.00e+00 1.00e+00 1.00e+00 0.00e+00 0.00e+00
bytes total:             7.63e+11 1.88e+08 5.57e+11 0.00e+00 0.00e+00 2.24e+02
bytes remote:            0.00e+00 0.00e+00 0.00e+00 0.00e+00 0.00e+00 0.00e+00
Max memory consumed for GA by this process: 98192 bytes

MA_summarize_allocated_blocks: starting scan ...
MA_summarize_allocated_blocks: scan completed: 0 heap blocks, 0 stack blocks
MA usage statistics:

	allocation statistics:
					      heap	     stack
					      ----	     -----
	current number of blocks	         0	         0
	maximum number of blocks	        19	        17
	current total bytes		         0	         0
	maximum total bytes		   3212200	  22508696
	maximum total K-bytes		      3213	     22509
	maximum total M-bytes		         4	        23


                                     CITATION
                                     --------
                Please cite the following reference when publishing
                           results obtained with NWChem:

                 M. Valiev, E.J. Bylaska, N. Govind, K. Kowalski,
              T.P. Straatsma, H.J.J. van Dam, D. Wang, J. Nieplocha,
                        E. Apra, T.L. Windus, W.A. de Jong
                 "NWChem: a comprehensive and scalable open-source
                  solution for large scale molecular simulations"
                      Comput. Phys. Commun. 181, 1477 (2010)
                           doi:10.1016/j.cpc.2010.04.018

                                      AUTHORS
                                      -------
          E. Apra, E. J. Bylaska, W. A. de Jong, N. Govind, K. Kowalski,
       T. P. Straatsma, M. Valiev, H. J. J. van Dam, D. Wang, T. L. Windus,
        J. Hammond, J. Autschbach, K. Bhaskaran-Nair, J. Brabec, K. Lopata,
    S. A. Fischer, S. Krishnamoorthy, M. Jacquelin, W. Ma, M. Klemm, O. Villa,
      Y. Chen, V. Anisimov, F. Aquino, S. Hirata, M. T. Hackler, V. Konjkov,
      T. Risthaus, M. Malagoli, A. Marenich, A. Otero-de-la-Roza, J. Mullin,
        P. Nichols, R. Peverati, J. Pittner, Y. Zhao, P.-D. Fan, A. Fonari,
       M. Williamson, R. J. Harrison, J. R. Rehr, M. Dupuis, D. Silverstein,
    D. M. A. Smith, J. Nieplocha, V. Tipparaju, M. Krishnan, B. E. Van Kuiken,
        A. Vazquez-Mayagoitia, L. Jensen, M. Swart, Q. Wu, T. Van Voorhis,
     A. A. Auer, M. Nooijen, L. D. Crosby, E. Brown, G. Cisneros, G. I. Fann,
   H. Fruchtl, J. Garza, K. Hirao, R. A. Kendall, J. A. Nichols, K. Tsemekhman,
    K. Wolinski, J. Anchell, D. E. Bernholdt, P. Borowski, T. Clark, D. Clerc,
   H. Dachsel, M. J. O. Deegan, K. Dyall, D. Elwood, E. Glendening, M. Gutowski,
   A. C. Hess, J. Jaffe, B. G. Johnson, J. Ju, R. Kobayashi, R. Kutteh, Z. Lin,
   R. Littlefield, X. Long, B. Meng, T. Nakajima, S. Niu, L. Pollack, M. Rosing,
   K. Glaesemann, G. Sandrone, M. Stave, H. Taylor, G. Thomas, J. H. van Lenthe,
                               A. T. Wong, Z. Zhang.

 Total times  cpu:     3161.3s     wall:     3408.3s
