 argument  1 = wfn1_3he.nw



============================== echo of input deck ==============================
echo
start wfn1_he_dat

geometry
  he 0 0 0
end
basis
He    S
     38.4216340              1.0000000
He    S
      5.7780300              1.0000000
He    S
      1.2417740              1.0000000
He    S
      0.2979640              1.0000000
end

dft
  odft
  mult 3
  direct
  xc hfexch
end

task dft energy

set wfn1:nopen 2
set wfn1:maxit 100
set wfn1:t_bath 0.0
set wfn1:print_error T
#set wfn1:ncorea 2
#set wfn1:ncoreb 2

task wfn1 energy

set wfn1:nopen 2
set wfn1:maxit 1000
set wfn1:t_bath 2.5

task wfn1 energy
================================================================================


                                         
                                         


              Northwest Computational Chemistry Package (NWChem) 6.8
              ------------------------------------------------------


                    Environmental Molecular Sciences Laboratory
                       Pacific Northwest National Laboratory
                                Richland, WA 99352

                              Copyright (c) 1994-2015
                       Pacific Northwest National Laboratory
                            Battelle Memorial Institute

             NWChem is an open-source computational chemistry package
                        distributed under the terms of the
                      Educational Community License (ECL) 2.0
             A copy of the license is included with this distribution
                              in the LICENSE.TXT file

                                  ACKNOWLEDGMENT
                                  --------------

            This software and its documentation were developed at the
            EMSL at Pacific Northwest National Laboratory, a multiprogram
            national laboratory, operated for the U.S. Department of Energy
            by Battelle under Contract Number DE-AC05-76RL01830. Support
            for this work was provided by the Department of Energy Office
            of Biological and Environmental Research, Office of Basic
            Energy Sciences, and the Office of Advanced Scientific Computing.


           Job information
           ---------------

    hostname        = erato
    program         = ../../../bin/LINUX64/nwchem
    date            = Sun Apr 22 18:18:26 2018

    compiled        = Sun_Apr_22_18:15:19_2018
    source          = /home/hvandam/nwchem-1-wfn1
    nwchem branch   = Development
    nwchem revision = nwchem_on_git-51-gcccac83fc2a4226c5c513281d68ab773edcb0a0d
    ga revision     = nwchem_on_git-43-g1da910a
    use scalapack   = F
    input           = wfn1_3he.nw
    prefix          = wfn1_he_dat.
    data base       = ./wfn1_he_dat.db
    status          = startup
    nproc           =        1
    time left       =     -1s



           Memory information
           ------------------

    heap     =   13107194 doubles =    100.0 Mbytes
    stack    =   13107199 doubles =    100.0 Mbytes
    global   =   26214400 doubles =    200.0 Mbytes (distinct from heap & stack)
    total    =   52428793 doubles =    400.0 Mbytes
    verify   = yes
    hardfail = no 


           Directory information
           ---------------------

  0 permanent = .
  0 scratch   = .




                                NWChem Input Module
                                -------------------



 Scaling coordinates for geometry "geometry" by  1.889725989
 (inverse scale =  0.529177249)



                             Geometry "geometry" -> ""
                             -------------------------

 Output coordinates in angstroms (scale by  1.889725989 to convert to a.u.)

  No.       Tag          Charge          X              Y              Z
 ---- ---------------- ---------- -------------- -------------- --------------
    1 he                   2.0000     0.00000000     0.00000000     0.00000000

      Atomic Mass 
      ----------- 

      he                 4.002600


 Effective nuclear repulsion energy (a.u.)       0.0000000000

            Nuclear Dipole moment (a.u.) 
            ----------------------------
        X                 Y               Z
 ---------------- ---------------- ----------------
     0.0000000000     0.0000000000     0.0000000000


            XYZ format geometry
            -------------------
     1
 geometry
 he                    0.00000000     0.00000000     0.00000000

                      Basis "ao basis" -> "" (cartesian)
                      -----
  He (Helium)
  -----------
            Exponent  Coefficients 
       -------------- ---------------------------------------------------------
  1 S  3.84216340E+01  1.000000

  2 S  5.77803000E+00  1.000000

  3 S  1.24177400E+00  1.000000

  4 S  2.97964000E-01  1.000000



 Summary of "ao basis" -> "" (cartesian)
 ------------------------------------------------------------------------------
       Tag                 Description            Shells   Functions and Types
 ---------------- ------------------------------  ------  ---------------------
 He                      user specified              4        4   4s


  xc_inp: hfexch multiplicative factor not found.

                                 NWChem DFT Module
                                 -----------------




 Summary of "ao basis" -> "ao basis" (cartesian)
 ------------------------------------------------------------------------------
       Tag                 Description            Shells   Functions and Types
 ---------------- ------------------------------  ------  ---------------------
 He                      user specified              4        4   4s


  Caching 1-el integrals 

            General Information
            -------------------
          SCF calculation type: DFT
          Wavefunction type:  spin polarized.
          No. of atoms     :     1
          No. of electrons :     2
           Alpha electrons :     2
            Beta electrons :     0
          Charge           :     0
          Spin multiplicity:     3
          Use of symmetry is: off; symmetry adaption is: off
          Maximum number of iterations:  30
          This is a Direct SCF calculation.
          AO basis - number of functions:     4
                     number of shells:     4
          Convergence on energy requested:  1.00D-06
          Convergence on density requested:  1.00D-05
          Convergence on gradient requested:  5.00D-04

              XC Information
              --------------
                     Hartree-Fock (Exact) Exchange  1.000          

          Convergence Information
          -----------------------
          Convergence aids based upon iterative change in 
          total energy or number of iterations. 
          Levelshifting, if invoked, occurs when the 
          HOMO/LUMO gap drops below (HL_TOL):  1.00D-02
          DIIS, if invoked, will attempt to extrapolate 
          using up to (NFOCK): 10 stored Fock matrices.

                    Damping( 0%)  Levelshifting(0.5)       DIIS
                  --------------- ------------------- ---------------
          dE  on:    start            ASAP                start   
          dE off:    2 iters         30 iters            30 iters 


      Screening Tolerance Information
      -------------------------------
          Density screening/tol_rho:  1.00D-10
          AO Gaussian exp screening on grid/accAOfunc:  14
          CD Gaussian exp screening on grid/accCDfunc:  20
          XC Gaussian exp screening on grid/accXCfunc:  20
          Schwarz screening/accCoul:  1.00D-08


      Superposition of Atomic Density Guess
      -------------------------------------

 Sum of atomic energies:          -2.85515891

      Non-variational initial energy
      ------------------------------

 Total energy =      -2.855160
 1-e energy   =      -3.882067
 2-e energy   =       1.026907
 HOMO         =      -0.914127
 LUMO         =       1.162113

   Time after variat. SCF:      0.1
   Time prior to 1st pass:      0.1

           Memory utilization after 1st SCF pass: 
           Heap Space remaining (MW):       13.11            13106634
          Stack Space remaining (MW):       13.11            13107036

   convergence    iter        energy       DeltaE   RMS-Dens  Diis-err    time
 ---------------- ----- ----------------- --------- --------- ---------  ------
 d= 0,ls=0.0,diis     1     -1.5431417028 -1.54D+00  4.57D-02  1.77D-01     0.1
                                                     0.00D+00  0.00D+00
 d= 0,ls=0.0,diis     2     -1.5547417690 -1.16D-02  6.04D-03  3.14D-03     0.1
                                                     0.00D+00  0.00D+00
 d= 0,ls=0.0,diis     3     -1.5549439626 -2.02D-04  3.84D-05  5.59D-07     0.1
                                                     0.00D+00  0.00D+00
 d= 0,ls=0.0,diis     4     -1.5549439875 -2.49D-08  1.54D-06  2.62D-10     0.1
                                                     0.00D+00  0.00D+00


         Total DFT energy =       -1.554943987518
      One electron energy =       -2.139175306136
           Coulomb energy =        1.624681812085
    Exchange-Corr. energy =       -1.040450493467
 Nuclear repulsion energy =        0.000000000000

 Numeric. integr. density =        0.000000000000

     Total iterative time =      0.0s



                    DFT Final Alpha Molecular Orbital Analysis
                    ------------------------------------------

 Vector    1  Occ=1.000000D+00  E=-1.409819D+00
              MO Center=  0.0D+00,  0.0D+00,  0.0D+00, r^2= 2.2D-01
   Bfn.  Coefficient  Atom+Function         Bfn.  Coefficient  Atom+Function  
  ----- ------------  ---------------      ----- ------------  ---------------
     3      0.618661  1 He s                  4      0.304989  1 He s          
     2      0.202821  1 He s                  1      0.028357  1 He s          

 Vector    2  Occ=1.000000D+00  E= 4.391049D-01
              MO Center=  0.0D+00,  0.0D+00,  0.0D+00, r^2= 9.3D-01
   Bfn.  Coefficient  Atom+Function         Bfn.  Coefficient  Atom+Function  
  ----- ------------  ---------------      ----- ------------  ---------------
     4      1.351088  1 He s                  3     -1.040401  1 He s          
     2     -0.083031  1 He s          

 Vector    3  Occ=0.000000D+00  E= 8.095999D+00
              MO Center=  0.0D+00,  0.0D+00,  0.0D+00, r^2= 2.2D-01
   Bfn.  Coefficient  Atom+Function         Bfn.  Coefficient  Atom+Function  
  ----- ------------  ---------------      ----- ------------  ---------------
     3     -1.507805  1 He s                  2      1.402055  1 He s          
     4      0.575428  1 He s          

 Vector    4  Occ=0.000000D+00  E= 6.197132D+01
              MO Center=  0.0D+00,  0.0D+00,  0.0D+00, r^2= 3.3D-02
   Bfn.  Coefficient  Atom+Function         Bfn.  Coefficient  Atom+Function  
  ----- ------------  ---------------      ----- ------------  ---------------
     1      1.253988  1 He s                  2     -1.019858  1 He s          
     3      0.520780  1 He s                  4     -0.174146  1 He s          


                     DFT Final Beta Molecular Orbital Analysis
                     -----------------------------------------

 Vector    1  Occ=0.000000D+00  E=-1.994269D+00
              MO Center=  0.0D+00,  0.0D+00,  0.0D+00, r^2= 2.2D-01
   Bfn.  Coefficient  Atom+Function         Bfn.  Coefficient  Atom+Function  
  ----- ------------  ---------------      ----- ------------  ---------------
     3      0.626083  1 He s                  4      0.302481  1 He s          
     2      0.195501  1 He s                  1      0.028408  1 He s          

 Vector    2  Occ=0.000000D+00  E=-1.475096D-01
              MO Center=  0.0D+00,  0.0D+00,  0.0D+00, r^2= 9.2D-01
   Bfn.  Coefficient  Atom+Function         Bfn.  Coefficient  Atom+Function  
  ----- ------------  ---------------      ----- ------------  ---------------
     4      1.339618  1 He s                  3     -1.011412  1 He s          
     2     -0.110329  1 He s          

 Vector    3  Occ=0.000000D+00  E= 6.318385D+00
              MO Center=  0.0D+00,  0.0D+00,  0.0D+00, r^2= 2.3D-01
   Bfn.  Coefficient  Atom+Function         Bfn.  Coefficient  Atom+Function  
  ----- ------------  ---------------      ----- ------------  ---------------
     3     -1.522567  1 He s                  2      1.397903  1 He s          
     4      0.602196  1 He s          

 Vector    4  Occ=0.000000D+00  E= 5.938939D+01
              MO Center=  0.0D+00,  0.0D+00,  0.0D+00, r^2= 3.3D-02
   Bfn.  Coefficient  Atom+Function         Bfn.  Coefficient  Atom+Function  
  ----- ------------  ---------------      ----- ------------  ---------------
     1      1.253959  1 He s                  2     -1.024388  1 He s          
     3      0.526041  1 He s                  4     -0.176605  1 He s          


   alpha - beta orbital overlaps 
   ----------------------------- 


   alpha      1      2      3      4
    beta      1      2      3      4
 overlap   1.000  1.000  1.000  1.000

     --------------------------
     Expectation value of S2:  
     --------------------------
      <S2> =      2.0000 (Exact =     2.0000)


 Task  times  cpu:        0.0s     wall:        0.0s


                                NWChem Input Module
                                -------------------



                                NWChem WFN1 Module
                                ------------------


  movecs_read_header: failed to open ./wfn1_he_dat.covecs IERR =                     2
 iteration              energy           error          err Na          err Nb          err Ca          err Cb
 ---------              ------           -----          ------          ------          ------          ------
         0         -1.55494399        0.000000        0.000000        0.000000        0.000000        0.000000

 Reached Convergence

 WFN1                     :
 --------------------------
 Total WFN1 energy =          -1.5549439875
 1-Electron energy =          -2.1391749651
 2-Electron energy =           0.5842309776
 Entropy energy    =           0.0000000000
 Nuclear energy    =           0.0000000000

 conventional Hartree-Fock:
 --------------------------
 Total SCF energy  =          -1.5549439875
 2-Electron energy =           0.5842309776


      Natural orbital occupation numbers

          Alpha     Beta
         ------   ------
     1   1.0000   0.0000
     2   1.0000   0.0000
     3   0.0000   0.0000

                     WFN1 Final Correlation function energies
                     ----------------------------------------

              alpha       beta  
            --------    --------
       1     -1.4098     -0.0176
       2      0.4391      1.1277
       3      8.0960      8.4752
       4     61.9713     62.1524

                  WFN1 Final alpha Correlation Function Analysis
                  ----------------------------------------------


 global array: Ca[1:4,1:4],  handle: -988 

            1           2           3           4  
       ----------- ----------- ----------- -----------
   1       1.00000    -0.00000     0.00000    -0.00000
   2      -0.00000     1.00000    -0.00000     0.00000
   3       0.00000    -0.00000     1.00000    -0.00000
   4      -0.00000     0.00000    -0.00000     1.00000

                   WFN1 Final beta Correlation Function Analysis
                   ---------------------------------------------


 global array: Cb[1:4,1:4],  handle: -987 

            1           2           3           4  
       ----------- ----------- ----------- -----------
   1       1.00000    -0.00000     0.00000    -0.00000
   2      -0.00000     1.00000    -0.00000     0.00000
   3       0.00000    -0.00000     1.00000    -0.00000
   4      -0.00000     0.00000    -0.00000     1.00000

                     WFN1 Final Alpha Natural Orbital Analysis
                     -----------------------------------------

 Vector    1  Occ=1.000000D+00  E=-1.409818D+00
              MO Center=  0.0D+00,  0.0D+00,  0.0D+00, r^2= 2.2D-01
   Bfn.  Coefficient  Atom+Function         Bfn.  Coefficient  Atom+Function  
  ----- ------------  ---------------      ----- ------------  ---------------
     3      0.618661  1 He s                  4      0.304989  1 He s          
     2      0.202821  1 He s                  1      0.028357  1 He s          

 Vector    2  Occ=1.000000D+00  E= 4.391051D-01
              MO Center=  0.0D+00,  0.0D+00,  0.0D+00, r^2= 9.3D-01
   Bfn.  Coefficient  Atom+Function         Bfn.  Coefficient  Atom+Function  
  ----- ------------  ---------------      ----- ------------  ---------------
     4      1.351088  1 He s                  3     -1.040401  1 He s          
     2     -0.083031  1 He s          

 Vector    3  Occ=0.000000D+00  E= 8.095999D+00
              MO Center=  0.0D+00,  0.0D+00,  0.0D+00, r^2= 2.2D-01
   Bfn.  Coefficient  Atom+Function         Bfn.  Coefficient  Atom+Function  
  ----- ------------  ---------------      ----- ------------  ---------------
     3     -1.507805  1 He s                  2      1.402055  1 He s          
     4      0.575428  1 He s          

 Vector    4  Occ=0.000000D+00  E= 6.197132D+01
              MO Center=  0.0D+00,  0.0D+00,  0.0D+00, r^2= 3.3D-02
   Bfn.  Coefficient  Atom+Function         Bfn.  Coefficient  Atom+Function  
  ----- ------------  ---------------      ----- ------------  ---------------
     1      1.253988  1 He s                  2     -1.019858  1 He s          
     3      0.520780  1 He s                  4     -0.174146  1 He s          


                     WFN1 Final Beta Natural Orbital Analysis
                     ----------------------------------------

 Vector    1  Occ=0.000000D+00  E=-1.756011D-02
              MO Center=  0.0D+00,  0.0D+00,  0.0D+00, r^2= 2.2D-01
   Bfn.  Coefficient  Atom+Function         Bfn.  Coefficient  Atom+Function  
  ----- ------------  ---------------      ----- ------------  ---------------
     3      0.618661  1 He s                  4      0.304989  1 He s          
     2      0.202821  1 He s                  1      0.028357  1 He s          

 Vector    2  Occ=0.000000D+00  E= 1.127748D+00
              MO Center=  0.0D+00,  0.0D+00,  0.0D+00, r^2= 9.3D-01
   Bfn.  Coefficient  Atom+Function         Bfn.  Coefficient  Atom+Function  
  ----- ------------  ---------------      ----- ------------  ---------------
     4      1.351088  1 He s                  3     -1.040401  1 He s          
     2     -0.083031  1 He s          

 Vector    3  Occ=0.000000D+00  E= 8.475186D+00
              MO Center=  0.0D+00,  0.0D+00,  0.0D+00, r^2= 2.2D-01
   Bfn.  Coefficient  Atom+Function         Bfn.  Coefficient  Atom+Function  
  ----- ------------  ---------------      ----- ------------  ---------------
     3     -1.507805  1 He s                  2      1.402055  1 He s          
     4      0.575428  1 He s          

 Vector    4  Occ=0.000000D+00  E= 6.215245D+01
              MO Center=  0.0D+00,  0.0D+00,  0.0D+00, r^2= 3.3D-02
   Bfn.  Coefficient  Atom+Function         Bfn.  Coefficient  Atom+Function  
  ----- ------------  ---------------      ----- ------------  ---------------
     1      1.253988  1 He s                  2     -1.019858  1 He s          
     3      0.520780  1 He s                  4     -0.174146  1 He s          


 Task  times  cpu:        0.0s     wall:        0.0s


                                NWChem Input Module
                                -------------------



                                NWChem WFN1 Module
                                ------------------


  movecs_read_header: failed to open ./wfn1_he_dat.covecs IERR =                     2
 iteration              energy           error          err Na          err Nb          err Ca          err Cb
 ---------              ------           -----          ------          ------          ------          ------
         1         -2.42482241        5.140294        0.002358        0.000000        1.433957        3.703980
         2         -2.42512389        5.144121        0.006038        0.000000        1.434178        3.703905
         3         -2.43476505       13.577788        0.006030        0.000000        2.560630       11.011128
         4         -2.43501690       13.571847        0.001291        0.000000        2.560449       11.010107
         5         -2.43849644       10.904975        0.001267        0.000000        0.716337       10.187371
         6         -2.43871342       10.908622        0.004552        0.000000        0.716196       10.187874
         7         -2.44299301       43.325212        0.004565        0.000000        4.173860       39.146787
         8         -2.44318358       43.318116        0.000634        0.000000        4.173727       39.143755
         9         -2.44804238       31.653532        0.000638        0.000000        0.717291       30.935602
        10         -2.44820991       31.657510        0.003631        0.000000        0.717267       30.936612
        11         -2.45373970      179.036920        0.003625        0.000000        4.871336      174.161959
        12         -2.45388900      179.023323        0.000323        0.000000        4.871233      174.151767
        13         -2.45968323       96.368511        0.000326        0.000000        0.942522       95.425662
        14         -2.45981486       96.374391        0.002954        0.000000        0.942410       95.429026
        15         -2.46614154      774.791799        0.002948        0.000000        5.479149      769.309702
        16         -2.46625905      774.753317        0.000145        0.000000        5.479068      769.274104
        17         -2.47281057      415.396154        0.000149        0.000000        1.611683      413.784322
        18         -2.47291571      415.413183        0.002486        0.000000        1.611521      413.799175
        19         -2.47895697     1550.237994        0.002478        0.000000        4.565668     1545.669848
        20         -2.47905092     1550.172432        0.000049        0.000000        4.565612     1545.606771
        21         -2.48539322      657.152232        0.000053        0.000000        1.630830      655.521349
        22         -2.48548109      657.177312        0.002226        0.000000        1.630641      655.544445
        23         -2.49183448     2005.641058        0.002212        0.000000        5.419832     2000.219014
        24         -2.49191315     2005.564885        0.000008        0.000000        5.419789     2000.145089
        25         -2.49846497      268.673837        0.000009        0.000000        1.400248      267.273580
        26         -2.49854943      268.687050        0.002304        0.000000        1.400015      267.284731
        27         -2.50478021     1420.506539        0.002276        0.000000        6.090798     1414.413465
        28         -2.50485524     1420.451893        0.000003        0.000000        6.090763     1414.361127
        29         -2.51110861      327.640959        0.000002        0.000000        1.019861      326.621096
        30         -2.51114362      327.655735        0.001018        0.000000        1.019749      326.634968
        31         -2.51675478     2006.179794        0.000994        0.000000        6.278059     1999.900742
        32         -2.51678556     2006.125346        0.000018        0.000000        6.278031     1999.847297
        33         -2.52218908      104.584677        0.000015        0.000000        0.625220      103.959443
        34         -2.52220130      104.588735        0.000331        0.000000        0.625174      103.963230
        35         -2.52669961     1358.755187        0.000309        0.000000        5.651996     1353.102882
        36         -2.52670896     1358.728565        0.000042        0.000000        5.651982     1353.076541
        37         -2.53076265      165.516456        0.000039        0.000000        0.319064      165.197353
        38         -2.53076269      165.516695        0.000046        0.000000        0.319063      165.197585
        39         -2.53379921     2183.555288        0.000035        0.000000        4.149743     2179.405510
        40         -2.53379963     2183.546609        0.000017        0.000000        4.149748     2179.396844
        41         -2.53625936       95.713679        0.000016        0.000000        0.081518       95.632145
        42         -2.53625956       95.713977        0.000028        0.000000        0.081517       95.632432
        43         -2.53854342     1709.789514        0.000026        0.000000        2.363335     1707.426153
        44         -2.53854389     1709.783921        0.000010        0.000000        2.363341     1707.420569
        45         -2.53955163      943.798703        0.000010        0.000000        0.026111      943.772582
        46         -2.53955177      943.800038        0.000018        0.000000        0.026112      943.773908
        47         -2.54000810      266.826369        0.000019        0.000000        0.707561      266.118789
        48         -2.54000811      266.826284        0.000016        0.000000        0.707561      266.118706
        49         -2.54022113       38.246596        0.000017        0.000000        0.018997       38.227582
        50         -2.54022114       38.246603        0.000018        0.000000        0.018998       38.227587
        51         -2.54026557      312.124765        0.000018        0.000000        0.096109      312.028638
        52         -2.54026557      312.124759        0.000018        0.000000        0.096108      312.028632
        53         -2.54029573       85.202757        0.000018        0.000000        0.013738       85.189001
        54         -2.54029573       85.202759        0.000019        0.000000        0.013738       85.189003
        55         -2.54031427      794.652296        0.000019        0.000000        0.048057      794.604220
        56         -2.54031427      794.652318        0.000019        0.000000        0.048057      794.604242
        57         -2.54032696      207.171623        0.000019        0.000000        0.011067      207.160537
        58         -2.54032858      207.170078        0.000007        0.000000        0.011065      207.159006
        59         -2.54033675     1514.637385        0.000007        0.000000        0.027675     1514.609703
        60         -2.54034973     1514.583283        0.000176        0.000000        0.027700     1514.555407
        61         -2.54035537      280.156940        0.000176        0.000000        0.009938      280.146826
        62         -2.54035540      280.157355        0.000162        0.000000        0.009937      280.147255
        63         -2.54035914     1707.288923        0.000163        0.000000        0.018463     1707.270296
        64         -2.54035915     1707.287860        0.000169        0.000000        0.018463     1707.269228
        65         -2.54036172      255.235010        0.000169        0.000000        0.009552      255.225289
        66         -2.54036172      255.235077        0.000167        0.000000        0.009551      255.225359
        67         -2.54036345     1555.673215        0.000168        0.000000        0.014142     1555.658905
        68         -2.54036345     1555.673106        0.000168        0.000000        0.014142     1555.658796
        69         -2.54036464      278.609164        0.000168        0.000000        0.009625      278.599371
        70         -2.54036464      278.609176        0.000168        0.000000        0.009625      278.599383
        71         -2.54036544     1602.673832        0.000169        0.000000        0.012231     1602.661432
        72         -2.54036544     1602.673856        0.000168        0.000000        0.012231     1602.661457
        73         -2.54036600      270.363906        0.000169        0.000000        0.009959      270.353779
        74         -2.54033128      270.373088        0.000015        0.000000        0.009922      270.363151
        75         -2.54033166     1549.866795        0.000015        0.000000        0.011492     1549.855287
        76         -2.54033479     1549.878991        0.000026        0.000000        0.011492     1549.867472
        77         -2.54033505      287.285220        0.000026        0.000000        0.010402      287.274792
        78         -2.54033743      287.283902        0.000007        0.000000        0.010401      287.273493
        79         -2.54033760     1567.653104        0.000007        0.000000        0.011433     1567.641664
        80         -2.54033946     1567.661737        0.000018        0.000000        0.011433     1567.650286
        81         -2.54033958      293.139725        0.000018        0.000000        0.010977      293.128731
        82         -2.54034110      293.138457        0.000004        0.000000        0.010976      293.127476
        83         -2.54034118     1556.467293        0.000004        0.000000        0.011744     1556.455545
        84         -2.54034243     1556.474368        0.000013        0.000000        0.011745     1556.462610
        85         -2.54034249      303.886710        0.000013        0.000000        0.011617      303.875079
        86         -2.54034356      303.885450        0.000002        0.000000        0.011617      303.873831
        87         -2.54034359     1564.265967        0.000002        0.000000        0.012260     1564.253705
        88         -2.54034448     1564.272463        0.000010        0.000000        0.012260     1564.260192
        89         -2.54034451      307.768111        0.000010        0.000000        0.012307      307.755794
        90         -2.54034529      307.766880        0.000002        0.000000        0.012307      307.754572
        91         -2.54034531     1562.972756        0.000002        0.000000        0.012899     1562.959856
        92         -2.54034595     1562.978709        0.000008        0.000000        0.012899     1562.965801
        93         -2.54034596      307.331213        0.000008        0.000000        0.013040      307.318165
        94         -2.54034653      307.330090        0.000001        0.000000        0.013040      307.317049
        95         -2.54034654     1415.809244        0.000001        0.000000        0.013579     1415.795664
        96         -2.54034701     1415.813814        0.000006        0.000000        0.013579     1415.800229
        97         -2.54034701       14.063787        0.000006        0.000000        0.013579       14.050201
        98         -2.54034743       14.063739        0.000001        0.000000        0.013579       14.050159
        99         -2.54034743        6.666286        0.000001        0.000000        0.013783        6.652503
       100         -2.54034779        6.666307        0.000005        0.000000        0.013783        6.652520
       101         -2.54034779       58.331075        0.000005        0.000000        0.014399       58.316671
       102         -2.54034812       58.330927        0.000001        0.000000        0.014399       58.316527
       103         -2.54034812       29.076974        0.000001        0.000000        0.014637       29.062336
       104         -2.54034840       29.077040        0.000004        0.000000        0.014637       29.062398
       105         -2.54034840       10.942989        0.000004        0.000000        0.014637       10.928348
       106         -2.54034865       10.942963        0.000000        0.000000        0.014637       10.928326
       107         -2.54034865        0.225758        0.000000        0.000000        0.014637        0.211120
       108         -2.54034865        0.226659        0.000000        0.000000        0.015198        0.211461
       109         -2.54034865        0.204984        0.000000        0.000000        0.015471        0.189513
       110         -2.54034865        0.027119        0.000000        0.000000        0.015471        0.011648
       111         -2.54034865        0.011656        0.000000        0.000000        0.000008        0.011648
       112         -2.54034865        0.072019        0.000000        0.000000        0.000014        0.072004
       113         -2.54034865        0.034813        0.000000        0.000000        0.000014        0.034798
       114         -2.54034865        0.014608        0.000000        0.000000        0.000007        0.014601
       115         -2.54034865        0.002955        0.000000        0.000000        0.000007        0.002948
       116         -2.54034865        0.014002        0.000000        0.000000        0.000011        0.013991
       117         -2.54034865        0.003634        0.000000        0.000000        0.000007        0.003627
       118         -2.54034865        0.000046        0.000000        0.000000        0.000007        0.000038
       119         -2.54034865        0.000011        0.000000        0.000000        0.000007        0.000003
       120         -2.54034865        0.000004        0.000000        0.000000        0.000001        0.000003
       121         -2.54034865        0.000001        0.000000        0.000000        0.000001        0.000000
       122         -2.54034865        0.000003        0.000000        0.000000        0.000003        0.000000
       123         -2.54034865        0.000001        0.000000        0.000000        0.000000        0.000000

 Reached Convergence

 WFN1                     :
 --------------------------
 Total WFN1 energy =          -2.5403486546
 1-Electron energy =          -0.0544345598
 2-Electron energy =           0.6962357709
 Entropy energy    =          -3.1821498657
 Nuclear energy    =           0.0000000000

 conventional Hartree-Fock:
 --------------------------
 Total SCF energy  =          -2.3595543036
 2-Electron energy =           0.8770301220


      Natural orbital occupation numbers

          Alpha     Beta
         ------   ------
     1   0.8998   0.0000
     2   0.8061   0.0000
     3   0.2940   0.0000
     4   0.0000   0.0000

                     WFN1 Final Correlation function energies
                     ----------------------------------------

              alpha       beta  
            --------    --------
       1      4.2858     -7.0505
       2      4.6539     -5.9973
       3      5.3038      1.5086
       4     55.0750     55.3709

                  WFN1 Final alpha Correlation Function Analysis
                  ----------------------------------------------


 global array: Ca[1:4,1:4],  handle: -984 

            1           2           3           4  
       ----------- ----------- ----------- -----------
   1       0.93074    -0.18319    -0.31650     0.00000
   2      -0.02691    -0.89744     0.44032    -0.00000
   3       0.36470     0.40130     0.84021     0.00000
   4      -0.00000    -0.00000    -0.00000     1.00000

                   WFN1 Final beta Correlation Function Analysis
                   ---------------------------------------------


 global array: Cb[1:4,1:4],  handle: -983 

            1           2           3           4  
       ----------- ----------- ----------- -----------
   1       1.00000     0.00000     0.00002    -0.00000
   2      -0.00000     1.00000     0.00001     0.00000
   3       0.00002     0.00001    -1.00000     0.00000
   4      -0.00000     0.00000    -0.00000    -1.00000

                     WFN1 Final Alpha Natural Orbital Analysis
                     -----------------------------------------

 Vector    1  Occ=8.998299D-01  E= 4.285788D+00
              MO Center=  0.0D+00,  0.0D+00,  0.0D+00, r^2= 2.3D-01
   Bfn.  Coefficient  Atom+Function         Bfn.  Coefficient  Atom+Function  
  ----- ------------  ---------------      ----- ------------  ---------------
     3      0.597550  1 He s                  4      0.334691  1 He s          
     2      0.198051  1 He s                  1      0.028305  1 He s          

 Vector    2  Occ=8.061210D-01  E= 4.653895D+00
              MO Center=  0.0D+00,  0.0D+00,  0.0D+00, r^2= 9.2D-01
   Bfn.  Coefficient  Atom+Function         Bfn.  Coefficient  Atom+Function  
  ----- ------------  ---------------      ----- ------------  ---------------
     4      1.341949  1 He s                  3     -1.049499  1 He s          
     2     -0.091969  1 He s          

 Vector    3  Occ=2.940492D-01  E= 5.303809D+00
              MO Center=  0.0D+00,  0.0D+00,  0.0D+00, r^2= 2.2D-01
   Bfn.  Coefficient  Atom+Function         Bfn.  Coefficient  Atom+Function  
  ----- ------------  ---------------      ----- ------------  ---------------
     3     -1.509427  1 He s                  2      1.400683  1 He s          
     4      0.580066  1 He s          

 Vector    4  Occ=1.385441D-12  E= 5.507504D+01
              MO Center=  0.0D+00,  0.0D+00,  0.0D+00, r^2= 3.3D-02
   Bfn.  Coefficient  Atom+Function         Bfn.  Coefficient  Atom+Function  
  ----- ------------  ---------------      ----- ------------  ---------------
     1      1.253959  1 He s                  2     -1.021911  1 He s          
     3      0.522474  1 He s                  4     -0.174872  1 He s          


                     WFN1 Final Beta Natural Orbital Analysis
                     ----------------------------------------

 Vector    1  Occ=0.000000D+00  E=-7.050463D+00
              MO Center=  0.0D+00,  0.0D+00,  0.0D+00, r^2= 2.2D-01
   Bfn.  Coefficient  Atom+Function         Bfn.  Coefficient  Atom+Function  
  ----- ------------  ---------------      ----- ------------  ---------------
     3      0.618661  1 He s                  4      0.304989  1 He s          
     2      0.202821  1 He s                  1      0.028357  1 He s          

 Vector    2  Occ=0.000000D+00  E=-5.997303D+00
              MO Center=  0.0D+00,  0.0D+00,  0.0D+00, r^2= 9.3D-01
   Bfn.  Coefficient  Atom+Function         Bfn.  Coefficient  Atom+Function  
  ----- ------------  ---------------      ----- ------------  ---------------
     4      1.351088  1 He s                  3     -1.040401  1 He s          
     2     -0.083031  1 He s          

 Vector    3  Occ=0.000000D+00  E= 1.508565D+00
              MO Center=  0.0D+00,  0.0D+00,  0.0D+00, r^2= 2.2D-01
   Bfn.  Coefficient  Atom+Function         Bfn.  Coefficient  Atom+Function  
  ----- ------------  ---------------      ----- ------------  ---------------
     3     -1.507805  1 He s                  2      1.402055  1 He s          
     4      0.575428  1 He s          

 Vector    4  Occ=0.000000D+00  E= 5.537085D+01
              MO Center=  0.0D+00,  0.0D+00,  0.0D+00, r^2= 3.3D-02
   Bfn.  Coefficient  Atom+Function         Bfn.  Coefficient  Atom+Function  
  ----- ------------  ---------------      ----- ------------  ---------------
     1      1.253988  1 He s                  2     -1.019858  1 He s          
     3      0.520780  1 He s                  4     -0.174146  1 He s          


 Task  times  cpu:        2.5s     wall:        3.4s


                                NWChem Input Module
                                -------------------


 Summary of allocated global arrays
-----------------------------------
  No active global arrays



                         GA Statistics for process    0
                         ------------------------------

       create   destroy   get      put      acc     scatter   gather  read&inc
calls:  221      221     1.35e+06 1.05e+04 7.48e+05    0        0       66     
number of processes/call 1.00e+00 1.00e+00 1.00e+00 0.00e+00 0.00e+00
bytes total:             1.41e+08 1.27e+06 9.57e+07 0.00e+00 0.00e+00 5.28e+02
bytes remote:            0.00e+00 0.00e+00 0.00e+00 0.00e+00 0.00e+00 0.00e+00
Max memory consumed for GA by this process: 8320 bytes

MA_summarize_allocated_blocks: starting scan ...
MA_summarize_allocated_blocks: scan completed: 0 heap blocks, 0 stack blocks
MA usage statistics:

	allocation statistics:
					      heap	     stack
					      ----	     -----
	current number of blocks	         0	         0
	maximum number of blocks	        18	        19
	current total bytes		         0	         0
	maximum total bytes		     80152	  22509912
	maximum total K-bytes		        81	     22510
	maximum total M-bytes		         1	        23


                                     CITATION
                                     --------
                Please cite the following reference when publishing
                           results obtained with NWChem:

                 M. Valiev, E.J. Bylaska, N. Govind, K. Kowalski,
              T.P. Straatsma, H.J.J. van Dam, D. Wang, J. Nieplocha,
                        E. Apra, T.L. Windus, W.A. de Jong
                 "NWChem: a comprehensive and scalable open-source
                  solution for large scale molecular simulations"
                      Comput. Phys. Commun. 181, 1477 (2010)
                           doi:10.1016/j.cpc.2010.04.018

                                      AUTHORS
                                      -------
          E. Apra, E. J. Bylaska, W. A. de Jong, N. Govind, K. Kowalski,
       T. P. Straatsma, M. Valiev, H. J. J. van Dam, D. Wang, T. L. Windus,
        J. Hammond, J. Autschbach, K. Bhaskaran-Nair, J. Brabec, K. Lopata,
    S. A. Fischer, S. Krishnamoorthy, M. Jacquelin, W. Ma, M. Klemm, O. Villa,
      Y. Chen, V. Anisimov, F. Aquino, S. Hirata, M. T. Hackler, V. Konjkov,
      T. Risthaus, M. Malagoli, A. Marenich, A. Otero-de-la-Roza, J. Mullin,
        P. Nichols, R. Peverati, J. Pittner, Y. Zhao, P.-D. Fan, A. Fonari,
       M. Williamson, R. J. Harrison, J. R. Rehr, M. Dupuis, D. Silverstein,
    D. M. A. Smith, J. Nieplocha, V. Tipparaju, M. Krishnan, B. E. Van Kuiken,
        A. Vazquez-Mayagoitia, L. Jensen, M. Swart, Q. Wu, T. Van Voorhis,
     A. A. Auer, M. Nooijen, L. D. Crosby, E. Brown, G. Cisneros, G. I. Fann,
   H. Fruchtl, J. Garza, K. Hirao, R. A. Kendall, J. A. Nichols, K. Tsemekhman,
    K. Wolinski, J. Anchell, D. E. Bernholdt, P. Borowski, T. Clark, D. Clerc,
   H. Dachsel, M. J. O. Deegan, K. Dyall, D. Elwood, E. Glendening, M. Gutowski,
   A. C. Hess, J. Jaffe, B. G. Johnson, J. Ju, R. Kobayashi, R. Kutteh, Z. Lin,
   R. Littlefield, X. Long, B. Meng, T. Nakajima, S. Niu, L. Pollack, M. Rosing,
   K. Glaesemann, G. Sandrone, M. Stave, H. Taylor, G. Thomas, J. H. van Lenthe,
                               A. T. Wong, Z. Zhang.

 Total times  cpu:        2.6s     wall:        3.6s
