 argument  1 = wfn1_3he.nw



============================== echo of input deck ==============================
echo
start wfn1_he_dat

geometry
  he 0 0 0
end
basis
  * library 6-311g**
end

set wfn1:nopen 2
set wfn1:maxit 100
set wfn1:t_bath 0.0
set wfn1:print_error T

task wfn1 energy

set wfn1:nopen 2
set wfn1:maxit 1000
set wfn1:t_bath 0.5

task wfn1 energy
================================================================================


                                         
                                         


              Northwest Computational Chemistry Package (NWChem) 6.8
              ------------------------------------------------------


                    Environmental Molecular Sciences Laboratory
                       Pacific Northwest National Laboratory
                                Richland, WA 99352

                              Copyright (c) 1994-2015
                       Pacific Northwest National Laboratory
                            Battelle Memorial Institute

             NWChem is an open-source computational chemistry package
                        distributed under the terms of the
                      Educational Community License (ECL) 2.0
             A copy of the license is included with this distribution
                              in the LICENSE.TXT file

                                  ACKNOWLEDGMENT
                                  --------------

            This software and its documentation were developed at the
            EMSL at Pacific Northwest National Laboratory, a multiprogram
            national laboratory, operated for the U.S. Department of Energy
            by Battelle under Contract Number DE-AC05-76RL01830. Support
            for this work was provided by the Department of Energy Office
            of Biological and Environmental Research, Office of Basic
            Energy Sciences, and the Office of Advanced Scientific Computing.


           Job information
           ---------------

    hostname        = erato
    program         = ../../../bin/LINUX64/nwchem
    date            = Sun May  6 21:30:03 2018

    compiled        = Sun_May_06_19:29:18_2018
    source          = /home/hvandam/nwchem-1-wfn1
    nwchem branch   = Development
    nwchem revision = nwchem_on_git-51-gcccac83fc2a4226c5c513281d68ab773edcb0a0d
    ga revision     = nwchem_on_git-43-g1da910a
    use scalapack   = F
    input           = wfn1_3he.nw
    prefix          = wfn1_he_dat.
    data base       = ./wfn1_he_dat.db
    status          = startup
    nproc           =        1
    time left       =     -1s



           Memory information
           ------------------

    heap     =   13107198 doubles =    100.0 Mbytes
    stack    =   13107195 doubles =    100.0 Mbytes
    global   =   26214400 doubles =    200.0 Mbytes (distinct from heap & stack)
    total    =   52428793 doubles =    400.0 Mbytes
    verify   = yes
    hardfail = no 


           Directory information
           ---------------------

  0 permanent = .
  0 scratch   = .




                                NWChem Input Module
                                -------------------



 Scaling coordinates for geometry "geometry" by  1.889725989
 (inverse scale =  0.529177249)



                             Geometry "geometry" -> ""
                             -------------------------

 Output coordinates in angstroms (scale by  1.889725989 to convert to a.u.)

  No.       Tag          Charge          X              Y              Z
 ---- ---------------- ---------- -------------- -------------- --------------
    1 he                   2.0000     0.00000000     0.00000000     0.00000000

      Atomic Mass 
      ----------- 

      he                 4.002600


 Effective nuclear repulsion energy (a.u.)       0.0000000000

            Nuclear Dipole moment (a.u.) 
            ----------------------------
        X                 Y               Z
 ---------------- ---------------- ----------------
     0.0000000000     0.0000000000     0.0000000000


            XYZ format geometry
            -------------------
     1
 geometry
 he                    0.00000000     0.00000000     0.00000000



 Summary of "ao basis" -> "" (cartesian)
 ------------------------------------------------------------------------------
       Tag                 Description            Shells   Functions and Types
 ---------------- ------------------------------  ------  ---------------------
 *                          6-311g**                  on all atoms 



                                NWChem WFN1 Module
                                ------------------


                      Basis "ao basis" -> "ao basis" (cartesian)
                      -----
  he (Helium)
  -----------
            Exponent  Coefficients 
       -------------- ---------------------------------------------------------
  1 S  9.81243000E+01  0.028745
  1 S  1.47689000E+01  0.208061
  1 S  3.31883000E+00  0.837635

  2 S  8.74047000E-01  1.000000

  3 S  2.44564000E-01  1.000000

  4 P  7.50000000E-01  1.000000



 Summary of "ao basis" -> "ao basis" (cartesian)
 ------------------------------------------------------------------------------
       Tag                 Description            Shells   Functions and Types
 ---------------- ------------------------------  ------  ---------------------
 he                         6-311g**                 4        6   3s1p



      Superposition of Atomic Density Guess
      -------------------------------------

 Sum of atomic energies:          -2.85989536

      Non-variational initial energy
      ------------------------------

 Total energy =      -2.859895
 1-e energy   =      -3.886048
 2-e energy   =       1.026153
 HOMO         =      -0.916871
 LUMO         =       0.829434

 iteration              energy           error          err Na          err Nb          err Ca          err Cb
 ---------              ------           -----          ------          ------          ------          ------
         1         -1.79103570        0.031800        0.031800        0.000000        0.000000        0.000000
         2         -1.79110173        0.004906        0.004906        0.000000        0.000000        0.000000
         3         -1.79110292        0.000845        0.000845        0.000000        0.000000        0.000000
         4         -1.79110293        0.000122        0.000122        0.000000        0.000000        0.000000
         5         -1.79110293        0.000021        0.000021        0.000000        0.000000        0.000000
         6         -1.79110293        0.000003        0.000003        0.000000        0.000000        0.000000
         7         -1.79110293        0.000001        0.000001        0.000000        0.000000        0.000000
         8         -1.79110293        0.000000        0.000000        0.000000        0.000000        0.000000

 Reached Convergence

 WFN1                     :
 --------------------------
 Total WFN1 energy =          -1.7911029334
 1-Electron energy =          -2.3110332118
 2-Electron energy =           0.5199302784
 Entropy energy    =           0.0000000000
 Nuclear energy    =           0.0000000000

 conventional Hartree-Fock:
 --------------------------
 Total SCF energy  =          -1.7911029334
 2-Electron energy =           0.5199302784

                WFN1 Final Natural orbital energies and occupations
                ---------------------------------------------------

              Alpha       Beta            Alpha       Beta  
            --------    --------        --------    --------
       1     -1.4781      0.0000          1.0000      0.0000
       2      0.2069      0.0000          1.0000      0.0000
       3      0.0000      0.0000          0.0000      0.0000
       4      0.0000      0.0000          0.0000      0.0000
       5      0.0000      0.0000          0.0000      0.0000
       6      0.0000      0.0000          0.0000      0.0000

             WFN1 Final Correlation function energies and occupations
             --------------------------------------------------------

              Alpha       Beta            Alpha       Beta  
            --------    --------        --------    --------
       1     -1.4781     -0.2241          1.0000      0.0000
       2      0.2069      0.8380          1.0000      0.0000
       3      1.2565      1.4157          0.0000      0.0000
       4      1.2565      1.4157          0.0000      0.0000
       5      1.2565      1.4157          0.0000      0.0000
       6      5.7542      6.1427          0.0000      0.0000

                WFN1 Final alpha-alpha 2-matrix occupation numbers
                --------------------------------------------------


 global array: g_momo1[1:6,1:6],  handle: -994 

            1           2           3           4           5           6  
       ----------- ----------- ----------- ----------- ----------- -----------
   1       0.00000     1.00000     0.00000     0.00000     0.00000     0.00000
   2       1.00000     0.00000     0.00000     0.00000     0.00000     0.00000
   3       0.00000     0.00000     0.00000     0.00000     0.00000     0.00000
   4       0.00000     0.00000     0.00000     0.00000     0.00000     0.00000
   5       0.00000     0.00000     0.00000     0.00000     0.00000     0.00000
   6       0.00000     0.00000     0.00000     0.00000     0.00000     0.00000

                 WFN1 Final beta-beta 2-matrix occupation numbers
                 ------------------------------------------------


 global array: g_momo2[1:6,1:6],  handle: -993 

            1           2           3           4           5           6  
       ----------- ----------- ----------- ----------- ----------- -----------
   1       0.00000     0.00000     0.00000     0.00000     0.00000     0.00000
   2       0.00000     0.00000     0.00000     0.00000     0.00000     0.00000
   3       0.00000     0.00000     0.00000     0.00000     0.00000     0.00000
   4       0.00000     0.00000     0.00000     0.00000     0.00000     0.00000
   5       0.00000     0.00000     0.00000     0.00000     0.00000     0.00000
   6       0.00000     0.00000     0.00000     0.00000     0.00000     0.00000

                  WFN1 Final alpha Correlation Function Analysis
                  ----------------------------------------------


 global array: Ca[1:6,1:6],  handle: -988 

            1           2           3           4           5           6  
       ----------- ----------- ----------- ----------- ----------- -----------
   1       1.00000     0.00000     0.00000     0.00000     0.00000     0.00000
   2       0.00000     1.00000     0.00000     0.00000     0.00000     0.00000
   3       0.00000     0.00000     0.00000     0.00000     1.00000     0.00000
   4       0.00000     0.00000     0.00000     1.00000     0.00000     0.00000
   5       0.00000     0.00000     1.00000     0.00000     0.00000     0.00000
   6       0.00000     0.00000     0.00000     0.00000     0.00000     1.00000

                   WFN1 Final beta Correlation Function Analysis
                   ---------------------------------------------


 global array: Cb[1:6,1:6],  handle: -987 

            1           2           3           4           5           6  
       ----------- ----------- ----------- ----------- ----------- -----------
   1       1.00000     0.00000     0.00000     0.00000     0.00000     0.00000
   2       0.00000     1.00000     0.00000     0.00000     0.00000     0.00000
   3       0.00000     0.00000     1.00000     0.00000     0.00000     0.00000
   4       0.00000     0.00000     0.00000     1.00000     0.00000     0.00000
   5       0.00000     0.00000     0.00000     0.00000     1.00000     0.00000
   6       0.00000     0.00000     0.00000     0.00000     0.00000     1.00000

                     WFN1 Final Alpha Natural Orbital Analysis
                     -----------------------------------------

 Vector    1  Occ=1.000000D+00  E=-1.478073D+00
              MO Center=  0.0D+00,  0.0D+00,  0.0D+00, r^2= 2.1D-01
   Bfn.  Coefficient  Atom+Function         Bfn.  Coefficient  Atom+Function  
  ----- ------------  ---------------      ----- ------------  ---------------
     2     -0.607960  1 He s                  1     -0.343420  1 He s          
     3     -0.173829  1 He s          

 Vector    2  Occ=1.000000D+00  E= 2.069004D-01
              MO Center=  0.0D+00,  0.0D+00,  0.0D+00, r^2= 1.2D+00
   Bfn.  Coefficient  Atom+Function         Bfn.  Coefficient  Atom+Function  
  ----- ------------  ---------------      ----- ------------  ---------------
     3     -1.447067  1 He s                  2      0.984306  1 He s          
     1      0.146159  1 He s          

 Vector    3  Occ=0.000000D+00  E= 0.000000D+00
              MO Center=  0.0D+00,  0.0D+00,  0.0D+00, r^2= 4.7D-01
   Bfn.  Coefficient  Atom+Function         Bfn.  Coefficient  Atom+Function  
  ----- ------------  ---------------      ----- ------------  ---------------
     4      1.000000  1 He px         

 Vector    4  Occ=0.000000D+00  E= 0.000000D+00
              MO Center=  0.0D+00,  0.0D+00,  0.0D+00, r^2= 4.7D-01
   Bfn.  Coefficient  Atom+Function         Bfn.  Coefficient  Atom+Function  
  ----- ------------  ---------------      ----- ------------  ---------------
     5      1.000000  1 He py         

 Vector    5  Occ=0.000000D+00  E= 0.000000D+00
              MO Center=  0.0D+00,  0.0D+00,  0.0D+00, r^2= 4.7D-01
   Bfn.  Coefficient  Atom+Function         Bfn.  Coefficient  Atom+Function  
  ----- ------------  ---------------      ----- ------------  ---------------
     6      1.000000  1 He pz         

 Vector    6  Occ=0.000000D+00  E= 0.000000D+00
              MO Center=  0.0D+00,  0.0D+00,  0.0D+00, r^2= 3.5D-01
   Bfn.  Coefficient  Atom+Function         Bfn.  Coefficient  Atom+Function  
  ----- ------------  ---------------      ----- ------------  ---------------
     2     -1.765410  1 He s                  1      1.426167  1 He s          
     3      0.746709  1 He s          


                     WFN1 Final Beta Natural Orbital Analysis
                     ----------------------------------------

 Vector    1  Occ=0.000000D+00  E= 0.000000D+00
              MO Center=  0.0D+00,  0.0D+00,  0.0D+00, r^2= 3.3D-01
   Bfn.  Coefficient  Atom+Function         Bfn.  Coefficient  Atom+Function  
  ----- ------------  ---------------      ----- ------------  ---------------
     2     -0.487487  1 He s                  3     -0.397446  1 He s          
     1     -0.263558  1 He s          

 Vector    2  Occ=0.000000D+00  E= 0.000000D+00
              MO Center=  0.0D+00,  0.0D+00,  0.0D+00, r^2= 1.1D+00
   Bfn.  Coefficient  Atom+Function         Bfn.  Coefficient  Atom+Function  
  ----- ------------  ---------------      ----- ------------  ---------------
     3     -1.427937  1 He s                  2      1.153994  1 He s          
     1      0.137951  1 He s          

 Vector    3  Occ=0.000000D+00  E= 0.000000D+00
              MO Center=  0.0D+00,  0.0D+00,  0.0D+00, r^2= 4.7D-01
   Bfn.  Coefficient  Atom+Function         Bfn.  Coefficient  Atom+Function  
  ----- ------------  ---------------      ----- ------------  ---------------
     4      1.000000  1 He px         

 Vector    4  Occ=0.000000D+00  E= 0.000000D+00
              MO Center=  0.0D+00,  0.0D+00,  0.0D+00, r^2= 4.7D-01
   Bfn.  Coefficient  Atom+Function         Bfn.  Coefficient  Atom+Function  
  ----- ------------  ---------------      ----- ------------  ---------------
     5      1.000000  1 He py         

 Vector    5  Occ=0.000000D+00  E= 0.000000D+00
              MO Center=  0.0D+00,  0.0D+00,  0.0D+00, r^2= 4.7D-01
   Bfn.  Coefficient  Atom+Function         Bfn.  Coefficient  Atom+Function  
  ----- ------------  ---------------      ----- ------------  ---------------
     6      1.000000  1 He pz         

 Vector    6  Occ=0.000000D+00  E= 0.000000D+00
              MO Center=  0.0D+00,  0.0D+00,  0.0D+00, r^2= 3.1D-01
   Bfn.  Coefficient  Atom+Function         Bfn.  Coefficient  Atom+Function  
  ----- ------------  ---------------      ----- ------------  ---------------
     2     -1.698764  1 He s                  1      1.443869  1 He s          
     3      0.696296  1 He s          


 Task  times  cpu:        0.2s     wall:        0.3s


                                NWChem Input Module
                                -------------------



                                NWChem WFN1 Module
                                ------------------



      Superposition of Atomic Density Guess
      -------------------------------------

 Sum of atomic energies:          -2.85989536

      Non-variational initial energy
      ------------------------------

 Total energy =      -2.859895
 1-e energy   =      -3.886048
 2-e energy   =       1.026153
 HOMO         =      -0.916871
 LUMO         =       0.829434

 iteration              energy           error          err Na          err Nb          err Ca          err Cb
 ---------              ------           -----          ------          ------          ------          ------
         1         -2.46224752        0.246314        0.056132        0.000000        0.009321        0.180862
         2         -2.47484922        0.200636        0.013521        0.000000        0.007697        0.179418
         3         -2.47511453        0.146158        0.013833        0.000000        0.004325        0.128000
         4         -2.47650753        0.137229        0.004526        0.000000        0.003998        0.128705
         5         -2.47653820        0.098151        0.004572        0.000000        0.003208        0.090371
         6         -2.47654316        0.097686        0.004124        0.000000        0.003185        0.090378
         7         -2.47654727        0.063337        0.004150        0.000000        0.003475        0.055712
         8         -2.47654727        0.063321        0.004135        0.000000        0.003474        0.055712
         9         -2.47654778        0.044845        0.004140        0.000000        0.003744        0.036961
        10         -2.47654778        0.044843        0.004138        0.000000        0.003744        0.036961
        11         -2.47654784        0.030035        0.004141        0.000000        0.004163        0.021731
        12         -2.47654784        0.030034        0.004140        0.000000        0.004163        0.021731
        13         -2.47654785        0.023038        0.004141        0.000000        0.004486        0.014411
        14         -2.47654785        0.023037        0.004141        0.000000        0.004486        0.014411
        15         -2.47654785        0.019000        0.004141        0.000000        0.005064        0.009795
        16         -2.47654785        0.019000        0.004141        0.000000        0.005064        0.009795
        17         -2.47654785        0.012554        0.004141        0.000000        0.005064        0.003349
        18         -2.47446592        0.008195        0.000366        0.000000        0.004475        0.003355
        19         -2.47446754        0.027669        0.000368        0.000000        0.005027        0.022275
        20         -2.47480973        0.027489        0.000085        0.000000        0.005109        0.022295
        21         -2.47481013        0.155829        0.000084        0.000000        0.005737        0.150008
        22         -2.47482881        0.155725        0.000004        0.000000        0.005749        0.149972
        23         -2.47482883        0.970951        0.000004        0.000000        0.006436        0.964511
        24         -2.47482903        0.970968        0.000007        0.000000        0.006433        0.964527
        25         -2.47482903        0.023574        0.000007        0.000000        0.006433        0.017133
        26         -2.47482904        0.023573        0.000006        0.000000        0.006434        0.017133
        27         -2.47482904        0.007532        0.000006        0.000000        0.006434        0.001092
        28         -2.47482904        0.007532        0.000006        0.000000        0.006434        0.001092
        29         -2.47482904        0.001103        0.000006        0.000000        0.000005        0.001092
        30         -2.47482904        0.001103        0.000006        0.000000        0.000005        0.001092
        31         -2.47482904        0.000388        0.000006        0.000000        0.000005        0.000377
        32         -2.47483019        0.000384        0.000003        0.000000        0.000005        0.000377
        33         -2.47483019        0.000404        0.000003        0.000000        0.000005        0.000397
        34         -2.47483236        0.000411        0.000010        0.000000        0.000005        0.000397
        35         -2.47483236        0.000161        0.000010        0.000000        0.000005        0.000146
        36         -2.47483238        0.000162        0.000011        0.000000        0.000005        0.000146
        37         -2.47483238        0.000017        0.000011        0.000000        0.000005        0.000001
        38         -2.47483239        0.000017        0.000011        0.000000        0.000005        0.000001
        39         -2.47483239        0.000012        0.000011        0.000000        0.000000        0.000001
        40         -2.47483239        0.000012        0.000011        0.000000        0.000000        0.000001
        41         -2.47483239        0.000011        0.000011        0.000000        0.000000        0.000000
        42         -2.47484312        0.000000        0.000000        0.000000        0.000000        0.000000

 Reached Convergence

 WFN1                     :
 --------------------------
 Total WFN1 energy =          -2.4748431165
 1-Electron energy =          -2.1006862009
 2-Electron energy =           0.6351091024
 Entropy energy    =          -1.0092660180
 Nuclear energy    =           0.0000000000

 conventional Hartree-Fock:
 --------------------------
 Total SCF energy  =          -2.2730488356
 2-Electron energy =           0.8369033832

                WFN1 Final Natural orbital energies and occupations
                ---------------------------------------------------

              Alpha       Beta            Alpha       Beta  
            --------    --------        --------    --------
       1     -1.3607      0.0000          1.0000      0.0000
       2      0.0813      0.0000          0.3950      0.0000
       3      0.1497      0.0000          0.2017      0.0000
       4      0.1497      0.0000          0.2017      0.0000
       5      0.1497      0.0000          0.2017      0.0000
       6      0.0000      0.0000          0.0000      0.0000

             WFN1 Final Correlation function energies and occupations
             --------------------------------------------------------

              Alpha       Beta            Alpha       Beta  
            --------    --------        --------    --------
       1     -0.0766     -1.5446          1.0000      0.0000
       2      0.0740     -0.5490          1.0000      0.0000
       3      0.4352      0.0951          0.0000      0.0000
       4      0.5197      0.0951          0.0000      0.0000
       5      0.5197      0.0951          0.0000      0.0000
       6      4.4487      4.7968          0.0000      0.0000

                WFN1 Final alpha-alpha 2-matrix occupation numbers
                --------------------------------------------------


 global array: g_momo1[1:6,1:6],  handle: -994 

            1           2           3           4           5           6  
       ----------- ----------- ----------- ----------- ----------- -----------
   1       0.00000     0.39504     0.20165     0.20165     0.20165     0.00000
   2       0.39504    -0.00000     0.00000     0.00000     0.00000     0.00000
   3       0.20165     0.00000     0.00000    -0.00000     0.00000     0.00000
   4       0.20165     0.00000    -0.00000     0.00000     0.00000     0.00000
   5       0.20165     0.00000     0.00000     0.00000     0.00000     0.00000
   6       0.00000     0.00000     0.00000     0.00000     0.00000     0.00000

                 WFN1 Final beta-beta 2-matrix occupation numbers
                 ------------------------------------------------


 global array: g_momo2[1:6,1:6],  handle: -993 

            1           2           3           4           5           6  
       ----------- ----------- ----------- ----------- ----------- -----------
   1       0.00000     0.00000     0.00000     0.00000     0.00000     0.00000
   2       0.00000     0.00000     0.00000     0.00000     0.00000     0.00000
   3       0.00000     0.00000     0.00000     0.00000     0.00000     0.00000
   4       0.00000     0.00000     0.00000     0.00000     0.00000     0.00000
   5       0.00000     0.00000     0.00000     0.00000     0.00000     0.00000
   6       0.00000     0.00000     0.00000     0.00000     0.00000     0.00000

                  WFN1 Final alpha Correlation Function Analysis
                  ----------------------------------------------


 global array: Ca[1:6,1:6],  handle: -988 

            1           2           3           4           5           6  
       ----------- ----------- ----------- ----------- ----------- -----------
   1       0.00001     1.00000    -0.00000     0.00000    -0.00000     0.00000
   2       0.62852    -0.00001    -0.77779     0.00002    -0.00001     0.00001
   3       0.44906    -0.00001     0.36288     0.70711     0.40824     0.00000
   4       0.44906    -0.00001     0.36288    -0.00002    -0.81649     0.00000
   5       0.44906    -0.00001     0.36286    -0.70711     0.40826    -0.00002
   6       0.00000    -0.00000     0.00001    -0.00002     0.00001     1.00000

                   WFN1 Final beta Correlation Function Analysis
                   ---------------------------------------------


 global array: Cb[1:6,1:6],  handle: -987 

            1           2           3           4           5           6  
       ----------- ----------- ----------- ----------- ----------- -----------
   1       1.00000     0.00005     0.00001    -0.00002     0.00001    -0.00000
   2      -0.00005     1.00000     0.00044    -0.00003     0.00002    -0.00000
   3       0.00000    -0.00024     0.57751     0.70701     0.40819    -0.00000
   4       0.00000    -0.00024     0.57752    -0.00039    -0.81638     0.00000
   5      -0.00002    -0.00028     0.57703    -0.70720     0.40854     0.00000
   6       0.00000     0.00000    -0.00000     0.00000     0.00000     1.00000

                     WFN1 Final Alpha Natural Orbital Analysis
                     -----------------------------------------

 Vector    1  Occ=1.000000D+00  E=-1.360734D+00
              MO Center=  0.0D+00,  0.0D+00,  0.0D+00, r^2= 2.3D-01
   Bfn.  Coefficient  Atom+Function         Bfn.  Coefficient  Atom+Function  
  ----- ------------  ---------------      ----- ------------  ---------------
     2     -0.595833  1 He s                  1     -0.320130  1 He s          
     3     -0.214277  1 He s          

 Vector    2  Occ=3.950359D-01  E= 8.127133D-02
              MO Center=  0.0D+00,  0.0D+00,  0.0D+00, r^2= 1.2D+00
   Bfn.  Coefficient  Atom+Function         Bfn.  Coefficient  Atom+Function  
  ----- ------------  ---------------      ----- ------------  ---------------
     3     -1.440427  1 He s                  2      1.005264  1 He s          
     1      0.157499  1 He s          

 Vector    3  Occ=2.016547D-01  E= 1.496648D-01
              MO Center=  0.0D+00,  0.0D+00,  0.0D+00, r^2= 4.7D-01
   Bfn.  Coefficient  Atom+Function         Bfn.  Coefficient  Atom+Function  
  ----- ------------  ---------------      ----- ------------  ---------------
     4      1.000000  1 He px         

 Vector    4  Occ=2.016547D-01  E= 1.496648D-01
              MO Center=  0.0D+00,  0.0D+00,  0.0D+00, r^2= 4.7D-01
   Bfn.  Coefficient  Atom+Function         Bfn.  Coefficient  Atom+Function  
  ----- ------------  ---------------      ----- ------------  ---------------
     5      1.000000  1 He py         

 Vector    5  Occ=2.016546D-01  E= 1.496647D-01
              MO Center=  0.0D+00,  0.0D+00,  0.0D+00, r^2= 4.7D-01
   Bfn.  Coefficient  Atom+Function         Bfn.  Coefficient  Atom+Function  
  ----- ------------  ---------------      ----- ------------  ---------------
     6      1.000000  1 He pz         

 Vector    6  Occ=2.071668D-11  E= 1.078863D-10
              MO Center=  0.0D+00,  0.0D+00,  0.0D+00, r^2= 3.4D-01
   Bfn.  Coefficient  Atom+Function         Bfn.  Coefficient  Atom+Function  
  ----- ------------  ---------------      ----- ------------  ---------------
     2     -1.757718  1 He s                  1      1.430372  1 He s          
     3      0.749032  1 He s          


                     WFN1 Final Beta Natural Orbital Analysis
                     ----------------------------------------

 Vector    1  Occ=0.000000D+00  E= 0.000000D+00
              MO Center=  0.0D+00,  0.0D+00,  0.0D+00, r^2= 3.3D-01
   Bfn.  Coefficient  Atom+Function         Bfn.  Coefficient  Atom+Function  
  ----- ------------  ---------------      ----- ------------  ---------------
     2     -0.487487  1 He s                  3     -0.397446  1 He s          
     1     -0.263558  1 He s          

 Vector    2  Occ=0.000000D+00  E= 0.000000D+00
              MO Center=  0.0D+00,  0.0D+00,  0.0D+00, r^2= 1.1D+00
   Bfn.  Coefficient  Atom+Function         Bfn.  Coefficient  Atom+Function  
  ----- ------------  ---------------      ----- ------------  ---------------
     3     -1.427937  1 He s                  2      1.153994  1 He s          
     1      0.137951  1 He s          

 Vector    3  Occ=0.000000D+00  E= 0.000000D+00
              MO Center=  0.0D+00,  0.0D+00,  0.0D+00, r^2= 4.7D-01
   Bfn.  Coefficient  Atom+Function         Bfn.  Coefficient  Atom+Function  
  ----- ------------  ---------------      ----- ------------  ---------------
     4      1.000000  1 He px         

 Vector    4  Occ=0.000000D+00  E= 0.000000D+00
              MO Center=  0.0D+00,  0.0D+00,  0.0D+00, r^2= 4.7D-01
   Bfn.  Coefficient  Atom+Function         Bfn.  Coefficient  Atom+Function  
  ----- ------------  ---------------      ----- ------------  ---------------
     5      1.000000  1 He py         

 Vector    5  Occ=0.000000D+00  E= 0.000000D+00
              MO Center=  0.0D+00,  0.0D+00,  0.0D+00, r^2= 4.7D-01
   Bfn.  Coefficient  Atom+Function         Bfn.  Coefficient  Atom+Function  
  ----- ------------  ---------------      ----- ------------  ---------------
     6      1.000000  1 He pz         

 Vector    6  Occ=0.000000D+00  E= 0.000000D+00
              MO Center=  0.0D+00,  0.0D+00,  0.0D+00, r^2= 3.1D-01
   Bfn.  Coefficient  Atom+Function         Bfn.  Coefficient  Atom+Function  
  ----- ------------  ---------------      ----- ------------  ---------------
     2     -1.698764  1 He s                  1      1.443869  1 He s          
     3      0.696296  1 He s          


 Task  times  cpu:        1.3s     wall:        1.6s


                                NWChem Input Module
                                -------------------


 Summary of allocated global arrays
-----------------------------------
  No active global arrays



                         GA Statistics for process    0
                         ------------------------------

       create   destroy   get      put      acc     scatter   gather  read&inc
calls:   90       90     5.45e+05 4382     3.00e+05    0        0        8     
number of processes/call 1.00e+00 1.00e+00 1.00e+00 0.00e+00 0.00e+00
bytes total:             1.28e+08 1.14e+06 8.65e+07 0.00e+00 0.00e+00 6.40e+01
bytes remote:            0.00e+00 0.00e+00 0.00e+00 0.00e+00 0.00e+00 0.00e+00
Max memory consumed for GA by this process: 9792 bytes

MA_summarize_allocated_blocks: starting scan ...
MA_summarize_allocated_blocks: scan completed: 0 heap blocks, 0 stack blocks
MA usage statistics:

	allocation statistics:
					      heap	     stack
					      ----	     -----
	current number of blocks	         0	         0
	maximum number of blocks	        18	        17
	current total bytes		         0	         0
	maximum total bytes		   3204536	  22508664
	maximum total K-bytes		      3205	     22509
	maximum total M-bytes		         4	        23


                                     CITATION
                                     --------
                Please cite the following reference when publishing
                           results obtained with NWChem:

                 M. Valiev, E.J. Bylaska, N. Govind, K. Kowalski,
              T.P. Straatsma, H.J.J. van Dam, D. Wang, J. Nieplocha,
                        E. Apra, T.L. Windus, W.A. de Jong
                 "NWChem: a comprehensive and scalable open-source
                  solution for large scale molecular simulations"
                      Comput. Phys. Commun. 181, 1477 (2010)
                           doi:10.1016/j.cpc.2010.04.018

                                      AUTHORS
                                      -------
          E. Apra, E. J. Bylaska, W. A. de Jong, N. Govind, K. Kowalski,
       T. P. Straatsma, M. Valiev, H. J. J. van Dam, D. Wang, T. L. Windus,
        J. Hammond, J. Autschbach, K. Bhaskaran-Nair, J. Brabec, K. Lopata,
    S. A. Fischer, S. Krishnamoorthy, M. Jacquelin, W. Ma, M. Klemm, O. Villa,
      Y. Chen, V. Anisimov, F. Aquino, S. Hirata, M. T. Hackler, V. Konjkov,
      T. Risthaus, M. Malagoli, A. Marenich, A. Otero-de-la-Roza, J. Mullin,
        P. Nichols, R. Peverati, J. Pittner, Y. Zhao, P.-D. Fan, A. Fonari,
       M. Williamson, R. J. Harrison, J. R. Rehr, M. Dupuis, D. Silverstein,
    D. M. A. Smith, J. Nieplocha, V. Tipparaju, M. Krishnan, B. E. Van Kuiken,
        A. Vazquez-Mayagoitia, L. Jensen, M. Swart, Q. Wu, T. Van Voorhis,
     A. A. Auer, M. Nooijen, L. D. Crosby, E. Brown, G. Cisneros, G. I. Fann,
   H. Fruchtl, J. Garza, K. Hirao, R. A. Kendall, J. A. Nichols, K. Tsemekhman,
    K. Wolinski, J. Anchell, D. E. Bernholdt, P. Borowski, T. Clark, D. Clerc,
   H. Dachsel, M. J. O. Deegan, K. Dyall, D. Elwood, E. Glendening, M. Gutowski,
   A. C. Hess, J. Jaffe, B. G. Johnson, J. Ju, R. Kobayashi, R. Kutteh, Z. Lin,
   R. Littlefield, X. Long, B. Meng, T. Nakajima, S. Niu, L. Pollack, M. Rosing,
   K. Glaesemann, G. Sandrone, M. Stave, H. Taylor, G. Thomas, J. H. van Lenthe,
                               A. T. Wong, Z. Zhang.

 Total times  cpu:        1.6s     wall:        2.0s
