 argument  1 = wfn1_3he_vx.nw



============================== echo of input deck ==============================
echo
start wfn1_he_dat

geometry
  he 0 0 0
end
basis
He    S
     38.4216340              1.0000000
He    S
      5.7780300              1.0000000
He    S
      1.2417740              1.0000000
He    S
      0.2979640              1.0000000
end

dft
  odft
  mult 3
  direct
  xc hfexch
end

task dft energy

set wfn1:corr_expr "wfn1_vx"
set wfn1:nopen 2
set wfn1:maxit 100
set wfn1:t_bath 0.0
set wfn1:print_error T
#set wfn1:ncorea 2
#set wfn1:ncoreb 2

task wfn1 energy

set wfn1:corr_expr "wfn1_vx"
set wfn1:nopen 2
set wfn1:maxit 200
set wfn1:t_bath 2.5

task wfn1 energy
================================================================================


                                         
                                         


              Northwest Computational Chemistry Package (NWChem) 6.8
              ------------------------------------------------------


                    Environmental Molecular Sciences Laboratory
                       Pacific Northwest National Laboratory
                                Richland, WA 99352

                              Copyright (c) 1994-2015
                       Pacific Northwest National Laboratory
                            Battelle Memorial Institute

             NWChem is an open-source computational chemistry package
                        distributed under the terms of the
                      Educational Community License (ECL) 2.0
             A copy of the license is included with this distribution
                              in the LICENSE.TXT file

                                  ACKNOWLEDGMENT
                                  --------------

            This software and its documentation were developed at the
            EMSL at Pacific Northwest National Laboratory, a multiprogram
            national laboratory, operated for the U.S. Department of Energy
            by Battelle under Contract Number DE-AC05-76RL01830. Support
            for this work was provided by the Department of Energy Office
            of Biological and Environmental Research, Office of Basic
            Energy Sciences, and the Office of Advanced Scientific Computing.


           Job information
           ---------------

    hostname        = erato
    program         = ../../../bin/LINUX64/nwchem
    date            = Sun Apr 22 18:47:13 2018

    compiled        = Sun_Apr_22_18:15:19_2018
    source          = /home/hvandam/nwchem-1-wfn1
    nwchem branch   = Development
    nwchem revision = nwchem_on_git-51-gcccac83fc2a4226c5c513281d68ab773edcb0a0d
    ga revision     = nwchem_on_git-43-g1da910a
    use scalapack   = F
    input           = wfn1_3he_vx.nw
    prefix          = wfn1_he_dat.
    data base       = ./wfn1_he_dat.db
    status          = startup
    nproc           =        1
    time left       =     -1s



           Memory information
           ------------------

    heap     =   13107196 doubles =    100.0 Mbytes
    stack    =   13107201 doubles =    100.0 Mbytes
    global   =   26214400 doubles =    200.0 Mbytes (distinct from heap & stack)
    total    =   52428797 doubles =    400.0 Mbytes
    verify   = yes
    hardfail = no 


           Directory information
           ---------------------

  0 permanent = .
  0 scratch   = .




                                NWChem Input Module
                                -------------------



 Scaling coordinates for geometry "geometry" by  1.889725989
 (inverse scale =  0.529177249)



                             Geometry "geometry" -> ""
                             -------------------------

 Output coordinates in angstroms (scale by  1.889725989 to convert to a.u.)

  No.       Tag          Charge          X              Y              Z
 ---- ---------------- ---------- -------------- -------------- --------------
    1 he                   2.0000     0.00000000     0.00000000     0.00000000

      Atomic Mass 
      ----------- 

      he                 4.002600


 Effective nuclear repulsion energy (a.u.)       0.0000000000

            Nuclear Dipole moment (a.u.) 
            ----------------------------
        X                 Y               Z
 ---------------- ---------------- ----------------
     0.0000000000     0.0000000000     0.0000000000


            XYZ format geometry
            -------------------
     1
 geometry
 he                    0.00000000     0.00000000     0.00000000

                      Basis "ao basis" -> "" (cartesian)
                      -----
  He (Helium)
  -----------
            Exponent  Coefficients 
       -------------- ---------------------------------------------------------
  1 S  3.84216340E+01  1.000000

  2 S  5.77803000E+00  1.000000

  3 S  1.24177400E+00  1.000000

  4 S  2.97964000E-01  1.000000



 Summary of "ao basis" -> "" (cartesian)
 ------------------------------------------------------------------------------
       Tag                 Description            Shells   Functions and Types
 ---------------- ------------------------------  ------  ---------------------
 He                      user specified              4        4   4s


  xc_inp: hfexch multiplicative factor not found.

                                 NWChem DFT Module
                                 -----------------




 Summary of "ao basis" -> "ao basis" (cartesian)
 ------------------------------------------------------------------------------
       Tag                 Description            Shells   Functions and Types
 ---------------- ------------------------------  ------  ---------------------
 He                      user specified              4        4   4s


  Caching 1-el integrals 

            General Information
            -------------------
          SCF calculation type: DFT
          Wavefunction type:  spin polarized.
          No. of atoms     :     1
          No. of electrons :     2
           Alpha electrons :     2
            Beta electrons :     0
          Charge           :     0
          Spin multiplicity:     3
          Use of symmetry is: off; symmetry adaption is: off
          Maximum number of iterations:  30
          This is a Direct SCF calculation.
          AO basis - number of functions:     4
                     number of shells:     4
          Convergence on energy requested:  1.00D-06
          Convergence on density requested:  1.00D-05
          Convergence on gradient requested:  5.00D-04

              XC Information
              --------------
                     Hartree-Fock (Exact) Exchange  1.000          

          Convergence Information
          -----------------------
          Convergence aids based upon iterative change in 
          total energy or number of iterations. 
          Levelshifting, if invoked, occurs when the 
          HOMO/LUMO gap drops below (HL_TOL):  1.00D-02
          DIIS, if invoked, will attempt to extrapolate 
          using up to (NFOCK): 10 stored Fock matrices.

                    Damping( 0%)  Levelshifting(0.5)       DIIS
                  --------------- ------------------- ---------------
          dE  on:    start            ASAP                start   
          dE off:    2 iters         30 iters            30 iters 


      Screening Tolerance Information
      -------------------------------
          Density screening/tol_rho:  1.00D-10
          AO Gaussian exp screening on grid/accAOfunc:  14
          CD Gaussian exp screening on grid/accCDfunc:  20
          XC Gaussian exp screening on grid/accXCfunc:  20
          Schwarz screening/accCoul:  1.00D-08


      Superposition of Atomic Density Guess
      -------------------------------------

 Sum of atomic energies:          -2.85515891

      Non-variational initial energy
      ------------------------------

 Total energy =      -2.855160
 1-e energy   =      -3.882067
 2-e energy   =       1.026907
 HOMO         =      -0.914127
 LUMO         =       1.162113

   Time after variat. SCF:      0.1
   Time prior to 1st pass:      0.1

           Memory utilization after 1st SCF pass: 
           Heap Space remaining (MW):       13.11            13106636
          Stack Space remaining (MW):       13.11            13107036

   convergence    iter        energy       DeltaE   RMS-Dens  Diis-err    time
 ---------------- ----- ----------------- --------- --------- ---------  ------
 d= 0,ls=0.0,diis     1     -1.5431417028 -1.54D+00  4.57D-02  1.77D-01     0.1
                                                     0.00D+00  0.00D+00
 d= 0,ls=0.0,diis     2     -1.5547417690 -1.16D-02  6.04D-03  3.14D-03     0.1
                                                     0.00D+00  0.00D+00
 d= 0,ls=0.0,diis     3     -1.5549439626 -2.02D-04  3.84D-05  5.59D-07     0.1
                                                     0.00D+00  0.00D+00
 d= 0,ls=0.0,diis     4     -1.5549439875 -2.49D-08  1.54D-06  2.62D-10     0.1
                                                     0.00D+00  0.00D+00


         Total DFT energy =       -1.554943987518
      One electron energy =       -2.139175306136
           Coulomb energy =        1.624681812085
    Exchange-Corr. energy =       -1.040450493467
 Nuclear repulsion energy =        0.000000000000

 Numeric. integr. density =        0.000000000000

     Total iterative time =      0.0s



                    DFT Final Alpha Molecular Orbital Analysis
                    ------------------------------------------

 Vector    1  Occ=1.000000D+00  E=-1.409819D+00
              MO Center=  0.0D+00,  0.0D+00,  0.0D+00, r^2= 2.2D-01
   Bfn.  Coefficient  Atom+Function         Bfn.  Coefficient  Atom+Function  
  ----- ------------  ---------------      ----- ------------  ---------------
     3      0.618661  1 He s                  4      0.304989  1 He s          
     2      0.202821  1 He s                  1      0.028357  1 He s          

 Vector    2  Occ=1.000000D+00  E= 4.391049D-01
              MO Center=  0.0D+00,  0.0D+00,  0.0D+00, r^2= 9.3D-01
   Bfn.  Coefficient  Atom+Function         Bfn.  Coefficient  Atom+Function  
  ----- ------------  ---------------      ----- ------------  ---------------
     4      1.351088  1 He s                  3     -1.040401  1 He s          
     2     -0.083031  1 He s          

 Vector    3  Occ=0.000000D+00  E= 8.095999D+00
              MO Center=  0.0D+00,  0.0D+00,  0.0D+00, r^2= 2.2D-01
   Bfn.  Coefficient  Atom+Function         Bfn.  Coefficient  Atom+Function  
  ----- ------------  ---------------      ----- ------------  ---------------
     3     -1.507805  1 He s                  2      1.402055  1 He s          
     4      0.575428  1 He s          

 Vector    4  Occ=0.000000D+00  E= 6.197132D+01
              MO Center=  0.0D+00,  0.0D+00,  0.0D+00, r^2= 3.3D-02
   Bfn.  Coefficient  Atom+Function         Bfn.  Coefficient  Atom+Function  
  ----- ------------  ---------------      ----- ------------  ---------------
     1      1.253988  1 He s                  2     -1.019858  1 He s          
     3      0.520780  1 He s                  4     -0.174146  1 He s          


                     DFT Final Beta Molecular Orbital Analysis
                     -----------------------------------------

 Vector    1  Occ=0.000000D+00  E=-1.994269D+00
              MO Center=  0.0D+00,  0.0D+00,  0.0D+00, r^2= 2.2D-01
   Bfn.  Coefficient  Atom+Function         Bfn.  Coefficient  Atom+Function  
  ----- ------------  ---------------      ----- ------------  ---------------
     3      0.626083  1 He s                  4      0.302481  1 He s          
     2      0.195501  1 He s                  1      0.028408  1 He s          

 Vector    2  Occ=0.000000D+00  E=-1.475096D-01
              MO Center=  0.0D+00,  0.0D+00,  0.0D+00, r^2= 9.2D-01
   Bfn.  Coefficient  Atom+Function         Bfn.  Coefficient  Atom+Function  
  ----- ------------  ---------------      ----- ------------  ---------------
     4      1.339618  1 He s                  3     -1.011412  1 He s          
     2     -0.110329  1 He s          

 Vector    3  Occ=0.000000D+00  E= 6.318385D+00
              MO Center=  0.0D+00,  0.0D+00,  0.0D+00, r^2= 2.3D-01
   Bfn.  Coefficient  Atom+Function         Bfn.  Coefficient  Atom+Function  
  ----- ------------  ---------------      ----- ------------  ---------------
     3     -1.522567  1 He s                  2      1.397903  1 He s          
     4      0.602196  1 He s          

 Vector    4  Occ=0.000000D+00  E= 5.938939D+01
              MO Center=  0.0D+00,  0.0D+00,  0.0D+00, r^2= 3.3D-02
   Bfn.  Coefficient  Atom+Function         Bfn.  Coefficient  Atom+Function  
  ----- ------------  ---------------      ----- ------------  ---------------
     1      1.253959  1 He s                  2     -1.024388  1 He s          
     3      0.526041  1 He s                  4     -0.176605  1 He s          


   alpha - beta orbital overlaps 
   ----------------------------- 


   alpha      1      2      3      4
    beta      1      2      3      4
 overlap   1.000  1.000  1.000  1.000

     --------------------------
     Expectation value of S2:  
     --------------------------
      <S2> =      2.0000 (Exact =     2.0000)


 Task  times  cpu:        0.0s     wall:        0.0s


                                NWChem Input Module
                                -------------------



                                NWChem WFN1 Module
                                ------------------


  movecs_read_header: failed to open ./wfn1_he_dat.covecs IERR =                     2
 iteration              energy           error          err Na          err Nb          err Ca          err Cb
 ---------              ------           -----          ------          ------          ------          ------
         0         -1.55494399        0.000000        0.000000        0.000000        0.000000        0.000000

 Reached Convergence

 WFN1                     :
 --------------------------
 Total WFN1 energy =          -1.5549439875
 1-Electron energy =          -2.1391749651
 2-Electron energy =           0.5842309776
 Entropy energy    =           0.0000000000
 Nuclear energy    =           0.0000000000

 conventional Hartree-Fock:
 --------------------------
 Total SCF energy  =          -1.5549439875
 2-Electron energy =           0.5842309776


      Natural orbital occupation numbers

          Alpha     Beta
         ------   ------
     1   1.0000   0.0000
     2   1.0000   0.0000
     3   0.0000   0.0000

                     WFN1 Final Correlation function energies
                     ----------------------------------------

              alpha       beta  
            --------    --------
       1     -1.4098     -0.0176
       2      0.4391      1.1277
       3      8.0960      8.4752
       4     61.9713     62.1524

                  WFN1 Final alpha Correlation Function Analysis
                  ----------------------------------------------


 global array: Ca[1:4,1:4],  handle: -988 

            1           2           3           4  
       ----------- ----------- ----------- -----------
   1       1.00000    -0.00000     0.00000    -0.00000
   2      -0.00000     1.00000    -0.00000     0.00000
   3       0.00000    -0.00000     1.00000    -0.00000
   4      -0.00000     0.00000    -0.00000     1.00000

                   WFN1 Final beta Correlation Function Analysis
                   ---------------------------------------------


 global array: Cb[1:4,1:4],  handle: -987 

            1           2           3           4  
       ----------- ----------- ----------- -----------
   1       1.00000    -0.00000     0.00000    -0.00000
   2      -0.00000     1.00000    -0.00000     0.00000
   3       0.00000    -0.00000     1.00000    -0.00000
   4      -0.00000     0.00000    -0.00000     1.00000

                     WFN1 Final Alpha Natural Orbital Analysis
                     -----------------------------------------

 Vector    1  Occ=1.000000D+00  E=-1.409818D+00
              MO Center=  0.0D+00,  0.0D+00,  0.0D+00, r^2= 2.2D-01
   Bfn.  Coefficient  Atom+Function         Bfn.  Coefficient  Atom+Function  
  ----- ------------  ---------------      ----- ------------  ---------------
     3      0.618661  1 He s                  4      0.304989  1 He s          
     2      0.202821  1 He s                  1      0.028357  1 He s          

 Vector    2  Occ=1.000000D+00  E= 4.391051D-01
              MO Center=  0.0D+00,  0.0D+00,  0.0D+00, r^2= 9.3D-01
   Bfn.  Coefficient  Atom+Function         Bfn.  Coefficient  Atom+Function  
  ----- ------------  ---------------      ----- ------------  ---------------
     4      1.351088  1 He s                  3     -1.040401  1 He s          
     2     -0.083031  1 He s          

 Vector    3  Occ=0.000000D+00  E= 8.095999D+00
              MO Center=  0.0D+00,  0.0D+00,  0.0D+00, r^2= 2.2D-01
   Bfn.  Coefficient  Atom+Function         Bfn.  Coefficient  Atom+Function  
  ----- ------------  ---------------      ----- ------------  ---------------
     3     -1.507805  1 He s                  2      1.402055  1 He s          
     4      0.575428  1 He s          

 Vector    4  Occ=0.000000D+00  E= 6.197132D+01
              MO Center=  0.0D+00,  0.0D+00,  0.0D+00, r^2= 3.3D-02
   Bfn.  Coefficient  Atom+Function         Bfn.  Coefficient  Atom+Function  
  ----- ------------  ---------------      ----- ------------  ---------------
     1      1.253988  1 He s                  2     -1.019858  1 He s          
     3      0.520780  1 He s                  4     -0.174146  1 He s          


                     WFN1 Final Beta Natural Orbital Analysis
                     ----------------------------------------

 Vector    1  Occ=0.000000D+00  E=-1.756011D-02
              MO Center=  0.0D+00,  0.0D+00,  0.0D+00, r^2= 2.2D-01
   Bfn.  Coefficient  Atom+Function         Bfn.  Coefficient  Atom+Function  
  ----- ------------  ---------------      ----- ------------  ---------------
     3      0.618661  1 He s                  4      0.304989  1 He s          
     2      0.202821  1 He s                  1      0.028357  1 He s          

 Vector    2  Occ=0.000000D+00  E= 1.127748D+00
              MO Center=  0.0D+00,  0.0D+00,  0.0D+00, r^2= 9.3D-01
   Bfn.  Coefficient  Atom+Function         Bfn.  Coefficient  Atom+Function  
  ----- ------------  ---------------      ----- ------------  ---------------
     4      1.351088  1 He s                  3     -1.040401  1 He s          
     2     -0.083031  1 He s          

 Vector    3  Occ=0.000000D+00  E= 8.475186D+00
              MO Center=  0.0D+00,  0.0D+00,  0.0D+00, r^2= 2.2D-01
   Bfn.  Coefficient  Atom+Function         Bfn.  Coefficient  Atom+Function  
  ----- ------------  ---------------      ----- ------------  ---------------
     3     -1.507805  1 He s                  2      1.402055  1 He s          
     4      0.575428  1 He s          

 Vector    4  Occ=0.000000D+00  E= 6.215245D+01
              MO Center=  0.0D+00,  0.0D+00,  0.0D+00, r^2= 3.3D-02
   Bfn.  Coefficient  Atom+Function         Bfn.  Coefficient  Atom+Function  
  ----- ------------  ---------------      ----- ------------  ---------------
     1      1.253988  1 He s                  2     -1.019858  1 He s          
     3      0.520780  1 He s                  4     -0.174146  1 He s          


 Task  times  cpu:        0.0s     wall:        0.0s


                                NWChem Input Module
                                -------------------



                                NWChem WFN1 Module
                                ------------------


  movecs_read_header: failed to open ./wfn1_he_dat.covecs IERR =                     2
 iteration              energy           error          err Na          err Nb          err Ca          err Cb
 ---------              ------           -----          ------          ------          ------          ------
         1         -2.41630992        4.225021        0.001871        0.000000        0.577307        3.645843
         2         -2.41654995        4.227304        0.004818        0.000000        0.576701        3.645785
         3         -2.42551079        2.072073        0.004821        0.000000        0.929882        1.137370
         4         -2.42572474        2.067913        0.001328        0.000000        0.929277        1.137308
         5         -2.42575160        1.874421        0.001312        0.000000        0.899009        0.974101
         6         -2.42593836        1.875847        0.003663        0.000000        0.897964        0.974219
         7         -2.42593899        1.901255        0.003663        0.000000        0.900502        0.997089
         8         -2.42610605        1.897897        0.000788        0.000000        0.900065        0.997045
         9         -2.42610605        1.898652        0.000788        0.000000        0.900144        0.997720
        10         -2.42625419        1.900078        0.002913        0.000000        0.899345        0.997820
        11         -2.42625422        1.904776        0.002913        0.000000        0.899841        1.002022
        12         -2.42638690        1.901958        0.000459        0.000000        0.899520        1.001979
        13         -2.42638690        1.465216        0.000459        0.000000        0.462778        1.001979
        14         -2.42650448        1.466823        0.002364        0.000000        0.462393        1.002065
        15         -2.42650450        1.471374        0.002364        0.000000        0.463204        1.005806
        16         -2.42660982        1.469139        0.000253        0.000000        0.463119        1.005766
        17         -2.42660982        1.468727        0.000253        0.000000        0.463046        1.005428
        18         -2.42670308        1.470194        0.001953        0.000000        0.462739        1.005502
        19         -2.42670309        1.474011        0.001953        0.000000        0.463420        1.008638
        20         -2.42678667        1.472094        0.000129        0.000000        0.463365        1.008600
        21         -2.42678667        1.471561        0.000129        0.000000        0.463270        1.008163
        22         -2.42686057        1.472888        0.001639        0.000000        0.463022        1.008227
        23         -2.42686058        1.476099        0.001639        0.000000        0.463596        1.010864
        24         -2.42692687        1.474448        0.000057        0.000000        0.463563        1.010829
        25         -2.42692687        1.473839        0.000057        0.000000        0.463453        1.010329
        26         -2.42698530        1.475030        0.001392        0.000000        0.463252        1.010385
        27         -2.42698530        1.477742        0.001392        0.000000        0.463738        1.012612
        28         -2.42703775        1.476319        0.000019        0.000000        0.463720        1.012580
        29         -2.42703775        1.475672        0.000019        0.000000        0.463604        1.012050
        30         -2.42708359        1.476727        0.001188        0.000000        0.463441        1.012098
        31         -2.42708359        1.479009        0.001187        0.000000        0.463850        1.013971
        32         -2.42712478        1.477788        0.000003        0.000000        0.463844        1.013942
        33         -2.42712478        1.477134        0.000003        0.000000        0.463726        1.013405
        34         -2.42715956        1.478034        0.000991        0.000000        0.463597        1.013446
        35         -2.42715956        1.479902        0.000991        0.000000        0.463932        1.014979
        36         -2.42719084        1.478886        0.000000        0.000000        0.463933        1.014952
        37         -2.42719084        1.478264        0.000000        0.000000        0.463822        1.014442
        38         -2.42719084        1.075340        0.000000        0.000000        0.060897        1.014442
        39         -2.42719084        1.075374        0.000000        0.000000        0.060901        1.014472
        40         -2.42719084        0.677026        0.000000        0.000000        0.060901        0.616124
        41         -2.42719084        0.677025        0.000000        0.000000        0.060901        0.616124
        42         -2.42719084        0.290205        0.000000        0.000000        0.060901        0.229304
        43         -2.42719084        0.483595        0.000000        0.000000        0.060901        0.422694
        44         -2.42719084        0.072870        0.000000        0.000000        0.060901        0.011969
        45         -2.42534833        0.038810        0.000007        0.000000        0.026837        0.011966
        46         -2.42545525        0.042188        0.003408        0.000000        0.026814        0.011966
        47         -2.42546499        0.020383        0.003409        0.000000        0.016419        0.000555
        48         -2.42555997        0.017055        0.000080        0.000000        0.016420        0.000555
        49         -2.50831892       11.572047        0.000121        0.000000        0.198729       11.373197
        50         -2.50836705       11.573280        0.000556        0.000000        0.198823       11.373900
        51         -2.51274349       64.707618        0.000522        0.000000        0.110436       64.596660
        52         -2.51276093       64.707178        0.000017        0.000000        0.110432       64.596728
        53         -2.51313849       38.435634        0.000019        0.000000        0.049332       38.386283
        54         -2.51314191       38.436300        0.000149        0.000000        0.049329       38.386822
        55         -2.51340714       74.029686        0.000152        0.000000        0.051664       73.977869
        56         -2.51340932       74.028913        0.000038        0.000000        0.051665       73.977210
        57         -2.51365333      124.894674        0.000039        0.000000        0.052529      124.842106
        58         -2.51365550      124.896143        0.000150        0.000000        0.052528      124.843466
        59         -2.51393398      273.872370        0.000150        0.000000        0.071721      273.800499
        60         -2.51393555      273.870111        0.000052        0.000000        0.071721      273.798338
        61         -2.51421536      349.388600        0.000052        0.000000        0.056256      349.332292
        62         -2.51421667      349.391716        0.000137        0.000000        0.056255      349.335323
        63         -2.51451695      774.647143        0.000137        0.000000        0.082813      774.564193
        64         -2.51451794      774.641946        0.000061        0.000000        0.082812      774.559072
        65         -2.51479777      703.063252        0.000061        0.000000        0.048783      703.014408
        66         -2.51479855      703.068155        0.000125        0.000000        0.048783      703.019248
        67         -2.51508462     1497.321591        0.000125        0.000000        0.085886     1497.235581
        68         -2.51508523     1497.313477        0.000068        0.000000        0.085885     1497.227524
        69         -2.51534219      789.964338        0.000067        0.000000        0.037891      789.926379
        70         -2.51534266      789.968643        0.000116        0.000000        0.037891      789.930637
        71         -2.51560058     1780.176418        0.000115        0.000000        0.085643     1780.090660
        72         -2.51560095     1780.168728        0.000072        0.000000        0.085643     1780.083013
        73         -2.51582854      503.348040        0.000072        0.000000        0.027417      503.320551
        74         -2.51582882      503.350208        0.000108        0.000000        0.027417      503.322683
        75         -2.51605698     1658.028375        0.000107        0.000000        0.084942     1657.943326
        76         -2.51605721     1658.022667        0.000075        0.000000        0.084942     1657.937651
        77         -2.51625664      375.790278        0.000074        0.000000        0.018629      375.771575
        78         -2.51625681      375.791553        0.000102        0.000000        0.018629      375.772822
        79         -2.51645888     1740.264981        0.000102        0.000000        0.085405     1740.179474
        80         -2.51645902     1740.260219        0.000076        0.000000        0.085405     1740.174737
        81         -2.51663467      213.566962        0.000076        0.000000        0.011752      213.555135
        82         -2.51663478      213.567547        0.000098        0.000000        0.011752      213.555697
        83         -2.51681674     1689.952763        0.000098        0.000000        0.088302     1689.864364
        84         -2.51681682     1689.949069        0.000078        0.000000        0.088302     1689.860690
        85         -2.51697447      139.960482        0.000077        0.000000        0.006652      139.953753
        86         -2.51697453      139.960780        0.000095        0.000000        0.006652      139.954033
        87         -2.51714427     2027.105299        0.000094        0.000000        0.095458     2027.009747
        88         -2.51714433     2027.101766        0.000078        0.000000        0.095458     2027.006229
        89         -2.51729113       68.469720        0.000078        0.000000        0.003113       68.466528
        90         -2.51729117       68.469838        0.000092        0.000000        0.003113       68.466632
        91         -2.51746099     1910.642335        0.000091        0.000000        0.111311     1910.530932
        92         -2.51746103     1910.639622        0.000078        0.000000        0.111311     1910.528232
        93         -2.51760786       33.007189        0.000078        0.000000        0.000938       33.006173
        94         -2.51760789       33.007240        0.000090        0.000000        0.000938       33.006213
        95         -2.51780970     1735.247354        0.000089        0.000000        0.153981     1735.093283
        96         -2.51780973     1735.245250        0.000078        0.000000        0.153981     1735.091191
        97         -2.51798455     1724.485281        0.000078        0.000000        0.000025     1724.485177
        98         -2.51798458     1724.487178        0.000088        0.000000        0.000025     1724.487065
        99         -2.51891805      533.738199        0.000084        0.000000        0.791513      532.946602
       100         -2.51891810      533.737367        0.000070        0.000000        0.791513      532.945784
       101         -2.51971962       31.643510        0.000071        0.000000        0.000799       31.642641
       102         -2.51971966       31.643593        0.000083        0.000000        0.000799       31.642711
       103         -2.52463953     1527.002912        0.000068        0.000000        3.725151     1523.277693
       104         -2.52463987     1526.997019        0.000039        0.000000        3.725151     1523.271828
       105         -2.52828834     1589.399163        0.000040        0.000000        0.040270     1589.358854
       106         -2.52828865     1589.405296        0.000067        0.000000        0.040272     1589.364958
       107         -2.53209391      588.883507        0.000061        0.000000        2.189302      586.694144
       108         -2.53209444      588.880842        0.000031        0.000000        2.189301      586.691511
       109         -2.53379751      269.990168        0.000031        0.000000        0.130720      269.859417
       110         -2.53379783      269.991130        0.000052        0.000000        0.130728      269.860350
       111         -2.53528301     1844.833633        0.000053        0.000000        1.303505     1843.530075
       112         -2.53528334     1844.827722        0.000032        0.000000        1.303500     1843.524190
       113         -2.53597542      497.368370        0.000032        0.000000        0.236405      497.131934
       114         -2.53597558      497.369308        0.000045        0.000000        0.236413      497.132850
       115         -2.53637808     1887.240478        0.000046        0.000000        0.794491     1886.445941
       116         -2.53637819     1887.237525        0.000035        0.000000        0.794485     1886.443005
       117         -2.53656512     1157.113827        0.000034        0.000000        0.306941     1156.806852
       118         -2.53656517     1157.114957        0.000042        0.000000        0.306946     1156.807969
       119         -2.53670976     1879.985275        0.000043        0.000000        0.637364     1879.347869
       120         -2.53670979     1879.983783        0.000037        0.000000        0.637360     1879.346386
       121         -2.53677539     1674.587908        0.000036        0.000000        0.370321     1674.217550
       122         -2.53677541     1674.588794        0.000040        0.000000        0.370324     1674.218429
       123         -2.53681699     1879.369548        0.000041        0.000000        0.548640     1878.820867
       124         -2.53681700     1879.368780        0.000038        0.000000        0.548638     1878.820104
       125         -2.53683509     1834.898821        0.000037        0.000000        0.412460     1834.486324
       126         -2.53683509     1834.899339        0.000040        0.000000        0.412461     1834.486839
       127         -2.53684659     1885.744778        0.000040        0.000000        0.506072     1885.238666
       128         -2.53684660     1885.744380        0.000038        0.000000        0.506071     1885.238271
       129         -2.53685117     1873.537370        0.000038        0.000000        0.438548     1873.098784
       130         -2.53685117     1873.537645        0.000039        0.000000        0.438548     1873.099057
       131         -2.53685405     1888.346927        0.000039        0.000000        0.484168     1887.862719
       132         -2.53685405     1888.346727        0.000038        0.000000        0.484168     1887.862521
       133         -2.53685498     1882.714421        0.000038        0.000000        0.451962     1882.262421
       134         -2.53685498     1882.714559        0.000039        0.000000        0.451962     1882.262558
       135         -2.53685576     1888.452566        0.000039        0.000000        0.477839     1887.974688
       136         -2.53685576     1888.452464        0.000039        0.000000        0.477839     1887.974586
       137         -2.53685614     1885.495848        0.000039        0.000000        0.458637     1885.037172
       138         -2.53685614     1885.495922        0.000039        0.000000        0.458638     1885.037246
       139         -2.53685638     1888.248542        0.000039        0.000000        0.472885     1887.775617
       140         -2.53685638     1888.248486        0.000039        0.000000        0.472885     1887.775562
       141         -2.53685649     1886.607194        0.000039        0.000000        0.462445     1886.144710
       142         -2.53685649     1886.607230        0.000039        0.000000        0.462445     1886.144747
       143         -2.53685656     1887.990499        0.000039        0.000000        0.470128     1887.520332
       144         -2.53685656     1887.990475        0.000039        0.000000        0.470128     1887.520308
       145         -2.53685659     1887.103844        0.000039        0.000000        0.464603     1886.639202
       146         -2.53685659     1887.103875        0.000039        0.000000        0.464604     1886.639232
       147         -2.53685661     1887.792548        0.000039        0.000000        0.468569     1887.323940
       148         -2.53685661     1887.792516        0.000039        0.000000        0.468569     1887.323908
       149         -2.53685662     1887.339326        0.000039        0.000000        0.465792     1886.873495
       150         -2.53685662     1887.339341        0.000039        0.000000        0.465792     1886.873510
       151         -2.53685662     1887.671235        0.000039        0.000000        0.467741     1887.203455
       152         -2.53685662     1887.671225        0.000039        0.000000        0.467741     1887.203445
       153         -2.53685663     1887.444797        0.000039        0.000000        0.466371     1886.978388
       154         -2.53685663     1887.444804        0.000039        0.000000        0.466371     1886.978395
       155         -2.53685663     1887.673223        0.000039        0.000000        0.467751     1887.205433
       156         -2.53685663     1887.673218        0.000039        0.000000        0.467751     1887.205427
       157         -2.53685663     1887.444130        0.000039        0.000000        0.466364     1886.977728
       158         -2.53686015     1887.422522        0.000012        0.000000        0.466345     1886.956164
       159         -2.53686015     1887.594848        0.000012        0.000000        0.467369     1887.127466
       160         -2.53687756     1887.569807        0.000369        0.000000        0.467478     1887.101960
       161         -2.53687756     1887.424467        0.000369        0.000000        0.466607     1886.957492
       162         -2.53688333     1887.413102        0.000122        0.000000        0.466610     1886.946371
       163         -2.53688333     1887.537802        0.000122        0.000000        0.467352     1887.070329
       164         -2.53688556     1887.532219        0.000256        0.000000        0.467383     1887.064580
       165         -2.53688556     1887.432271        0.000256        0.000000        0.466783     1886.965232
       166         -2.53688636     1887.430998        0.000174        0.000000        0.466777     1886.964046
       167         -2.53688636     1887.515462        0.000174        0.000000        0.467281     1887.048007
       168         -2.53688669     1887.514286        0.000227        0.000000        0.467291     1887.046769
       169         -2.53688669     1887.444480        0.000227        0.000000        0.466872     1886.977382
       170         -2.53688682     1887.444427        0.000194        0.000000        0.466868     1886.977365
       171         -2.53688682     1887.502100        0.000194        0.000000        0.467213     1887.034693
       172         -2.53688687     1887.501808        0.000215        0.000000        0.467216     1887.034377
       173         -2.53688687     1887.454811        0.000215        0.000000        0.466934     1886.987662
       174         -2.53688690     1887.454865        0.000202        0.000000        0.466933     1886.987731
       175         -2.53688690     1887.492660        0.000202        0.000000        0.467158     1887.025300
       176         -2.53688690     1887.492572        0.000210        0.000000        0.467160     1887.025203
       177         -2.53688690     1887.462566        0.000210        0.000000        0.466980     1886.995376
       178         -2.53688691     1887.462600        0.000205        0.000000        0.466979     1886.995416
       179         -2.53688691     1887.486781        0.000205        0.000000        0.467124     1887.019452
       180         -2.53688691     1887.486750        0.000208        0.000000        0.467124     1887.019418
       181         -2.53688691     1887.467392        0.000208        0.000000        0.467008     1887.000175
       182         -2.53688691     1887.467408        0.000206        0.000000        0.467008     1887.000194
       183         -2.53688691     1887.483016        0.000206        0.000000        0.467101     1887.015708
       184         -2.53688691     1887.483004        0.000208        0.000000        0.467102     1887.015695
       185         -2.53688691     1887.470468        0.000208        0.000000        0.467027     1887.003234
       186         -2.53688691     1887.470475        0.000207        0.000000        0.467026     1887.003242
       187         -2.53688691      100.983719        0.000207        0.000000        0.467026      100.516486
       188         -2.53688691      100.983719        0.000207        0.000000        0.467027      100.516486
       189         -2.53688691     1881.689245        0.000207        0.000000        0.467027     1881.222012
       190         -2.53688691     1881.689248        0.000207        0.000000        0.467026     1881.222015
       191         -2.53688691        4.482538        0.000207        0.000000        0.467026        4.015305
       192         -2.53685934        4.482304        0.000047        0.000000        0.466840        4.015417
       193         -2.53685934        4.482050        0.000047        0.000000        0.466794        4.015209
       194         -2.53685956        4.482019        0.000022        0.000000        0.466798        4.015199
       195         -2.53685956        4.482303        0.000022        0.000000        0.466850        4.015431
       196         -2.53685971        4.482329        0.000042        0.000000        0.466847        4.015441
       197         -2.53685971        4.481999        0.000042        0.000000        0.466786        4.015171
       198         -2.53685982        4.481978        0.000025        0.000000        0.466789        4.015164
       199         -2.53685982        4.482324        0.000025        0.000000        0.466852        4.015447
       200         -2.53685989        4.482342        0.000039        0.000000        0.466851        4.015453

 Failed to Converge

 WFN1                     :
 --------------------------
 Total WFN1 energy =          -2.5368598905
 1-Electron energy =          -0.1707113258
 2-Electron energy =           0.6959756032
 Entropy energy    =          -3.0621241678
 Nuclear energy    =           0.0000000000

 conventional Hartree-Fock:
 --------------------------
 Total SCF energy  =          -2.3660526805
 2-Electron energy =           0.8667828131


      Natural orbital occupation numbers

          Alpha     Beta
         ------   ------
     1   0.9152   0.0000
     2   0.8044   0.0000
     3   0.2804   0.0000
     4   0.0000   0.0000

                     WFN1 Final Correlation function energies
                     ----------------------------------------

              alpha       beta  
            --------    --------
       1      4.4441     -6.9053
       2      4.7882     -6.0419
       3      4.8277      1.4236
       4     55.0705     55.3414

                  WFN1 Final alpha Correlation Function Analysis
                  ----------------------------------------------


 global array: Ca[1:4,1:4],  handle: -988 

            1           2           3           4  
       ----------- ----------- ----------- -----------
   1       0.84529    -0.44800    -0.29118    -0.00108
   2      -0.29630    -0.84652     0.44227     0.00118
   3       0.44462     0.28757     0.84827     0.00744
   4      -0.00205    -0.00162    -0.00715     0.99997

                   WFN1 Final beta Correlation Function Analysis
                   ---------------------------------------------


 global array: Cb[1:4,1:4],  handle: -987 

            1           2           3           4  
       ----------- ----------- ----------- -----------
   1       0.96927    -0.22278     0.10386     0.01008
   2       0.22418     0.97453    -0.00124    -0.00524
   3       0.10080    -0.02437    -0.99449     0.01520
   4      -0.01013     0.00772     0.01407     0.99982

                     WFN1 Final Alpha Natural Orbital Analysis
                     -----------------------------------------

 Vector    1  Occ=9.152154D-01  E= 4.444118D+00
              MO Center=  0.0D+00,  0.0D+00,  0.0D+00, r^2= 2.3D-01
   Bfn.  Coefficient  Atom+Function         Bfn.  Coefficient  Atom+Function  
  ----- ------------  ---------------      ----- ------------  ---------------
     3      0.598041  1 He s                  4      0.333614  1 He s          
     2      0.198585  1 He s                  1      0.028380  1 He s          

 Vector    2  Occ=8.043966D-01  E= 4.788172D+00
              MO Center=  0.0D+00,  0.0D+00,  0.0D+00, r^2= 9.2D-01
   Bfn.  Coefficient  Atom+Function         Bfn.  Coefficient  Atom+Function  
  ----- ------------  ---------------      ----- ------------  ---------------
     4      1.342563  1 He s                  3     -1.049717  1 He s          
     2     -0.090980  1 He s          

 Vector    3  Occ=2.803812D-01  E= 4.827704D+00
              MO Center=  0.0D+00,  0.0D+00,  0.0D+00, r^2= 2.2D-01
   Bfn.  Coefficient  Atom+Function         Bfn.  Coefficient  Atom+Function  
  ----- ------------  ---------------      ----- ------------  ---------------
     3     -1.509167  1 He s                  2      1.400714  1 He s          
     4      0.579325  1 He s          

 Vector    4  Occ=6.821887D-06  E= 5.507051D+01
              MO Center=  0.0D+00,  0.0D+00,  0.0D+00, r^2= 3.3D-02
   Bfn.  Coefficient  Atom+Function         Bfn.  Coefficient  Atom+Function  
  ----- ------------  ---------------      ----- ------------  ---------------
     1      1.253955  1 He s                  2     -1.021854  1 He s          
     3      0.522225  1 He s                  4     -0.174671  1 He s          


                     WFN1 Final Beta Natural Orbital Analysis
                     ----------------------------------------

 Vector    1  Occ=0.000000D+00  E=-6.905322D+00
              MO Center=  0.0D+00,  0.0D+00,  0.0D+00, r^2= 2.2D-01
   Bfn.  Coefficient  Atom+Function         Bfn.  Coefficient  Atom+Function  
  ----- ------------  ---------------      ----- ------------  ---------------
     3      0.618661  1 He s                  4      0.304989  1 He s          
     2      0.202821  1 He s                  1      0.028357  1 He s          

 Vector    2  Occ=0.000000D+00  E=-6.041907D+00
              MO Center=  0.0D+00,  0.0D+00,  0.0D+00, r^2= 9.3D-01
   Bfn.  Coefficient  Atom+Function         Bfn.  Coefficient  Atom+Function  
  ----- ------------  ---------------      ----- ------------  ---------------
     4      1.351088  1 He s                  3     -1.040401  1 He s          
     2     -0.083031  1 He s          

 Vector    3  Occ=0.000000D+00  E= 1.423578D+00
              MO Center=  0.0D+00,  0.0D+00,  0.0D+00, r^2= 2.2D-01
   Bfn.  Coefficient  Atom+Function         Bfn.  Coefficient  Atom+Function  
  ----- ------------  ---------------      ----- ------------  ---------------
     3     -1.507805  1 He s                  2      1.402055  1 He s          
     4      0.575428  1 He s          

 Vector    4  Occ=0.000000D+00  E= 5.534140D+01
              MO Center=  0.0D+00,  0.0D+00,  0.0D+00, r^2= 3.3D-02
   Bfn.  Coefficient  Atom+Function         Bfn.  Coefficient  Atom+Function  
  ----- ------------  ---------------      ----- ------------  ---------------
     1      1.253988  1 He s                  2     -1.019858  1 He s          
     3      0.520780  1 He s                  4     -0.174146  1 He s          

 ------------------------------------------------------------------------
 wfn1 energy failed                                                                                 0
 ------------------------------------------------------------------------
 ------------------------------------------------------------------------
  current input line : 
    42: task wfn1 energy
 ------------------------------------------------------------------------
 ------------------------------------------------------------------------
 This type of error is most commonly associated with calculations not reaching convergence criteria
 ------------------------------------------------------------------------
 For more information see the NWChem manual at http://www.nwchem-sw.org/index.php/NWChem_Documentation


 For further details see manual section:                                                                                                                                                                                                                                                                
