 argument  1 = wfn1_h_vx.nw



============================== echo of input deck ==============================
echo
start wfn1_h_dat

geometry
  h 0 0 0
end
basis
  * library 6-31g*
end

set wfn1:corr_expr "wfn1_vx"
set wfn1:print_error T
set wfn1:nopen  1
set wfn1:maxit  50
set wfn1:t_bath 0.0

task wfn1 energy

set wfn1:corr_expr "wfn1_vx"
set wfn1:print_error T
set wfn1:nopen  1
set wfn1:maxit  1000
set wfn1:t_bath 0.5

task wfn1 energy
================================================================================


                                         
                                         


              Northwest Computational Chemistry Package (NWChem) 6.8
              ------------------------------------------------------


                    Environmental Molecular Sciences Laboratory
                       Pacific Northwest National Laboratory
                                Richland, WA 99352

                              Copyright (c) 1994-2015
                       Pacific Northwest National Laboratory
                            Battelle Memorial Institute

             NWChem is an open-source computational chemistry package
                        distributed under the terms of the
                      Educational Community License (ECL) 2.0
             A copy of the license is included with this distribution
                              in the LICENSE.TXT file

                                  ACKNOWLEDGMENT
                                  --------------

            This software and its documentation were developed at the
            EMSL at Pacific Northwest National Laboratory, a multiprogram
            national laboratory, operated for the U.S. Department of Energy
            by Battelle under Contract Number DE-AC05-76RL01830. Support
            for this work was provided by the Department of Energy Office
            of Biological and Environmental Research, Office of Basic
            Energy Sciences, and the Office of Advanced Scientific Computing.


           Job information
           ---------------

    hostname        = erato
    program         = ../../../bin/LINUX64/nwchem
    date            = Sat Apr 21 23:11:01 2018

    compiled        = Sat_Apr_21_22:48:35_2018
    source          = /home/hvandam/nwchem-1-wfn1
    nwchem branch   = Development
    nwchem revision = nwchem_on_git-51-gcccac83fc2a4226c5c513281d68ab773edcb0a0d
    ga revision     = nwchem_on_git-43-g1da910a
    use scalapack   = F
    input           = wfn1_h_vx.nw
    prefix          = wfn1_h_dat.
    data base       = ./wfn1_h_dat.db
    status          = startup
    nproc           =        1
    time left       =     -1s



           Memory information
           ------------------

    heap     =   13107198 doubles =    100.0 Mbytes
    stack    =   13107195 doubles =    100.0 Mbytes
    global   =   26214400 doubles =    200.0 Mbytes (distinct from heap & stack)
    total    =   52428793 doubles =    400.0 Mbytes
    verify   = yes
    hardfail = no 


           Directory information
           ---------------------

  0 permanent = .
  0 scratch   = .




                                NWChem Input Module
                                -------------------



 Scaling coordinates for geometry "geometry" by  1.889725989
 (inverse scale =  0.529177249)



                             Geometry "geometry" -> ""
                             -------------------------

 Output coordinates in angstroms (scale by  1.889725989 to convert to a.u.)

  No.       Tag          Charge          X              Y              Z
 ---- ---------------- ---------- -------------- -------------- --------------
    1 h                    1.0000     0.00000000     0.00000000     0.00000000

      Atomic Mass 
      ----------- 

      h                  1.007825


 Effective nuclear repulsion energy (a.u.)       0.0000000000

            Nuclear Dipole moment (a.u.) 
            ----------------------------
        X                 Y               Z
 ---------------- ---------------- ----------------
     0.0000000000     0.0000000000     0.0000000000


            XYZ format geometry
            -------------------
     1
 geometry
 h                     0.00000000     0.00000000     0.00000000



 Summary of "ao basis" -> "" (cartesian)
 ------------------------------------------------------------------------------
       Tag                 Description            Shells   Functions and Types
 ---------------- ------------------------------  ------  ---------------------
 *                           6-31g*                   on all atoms 



                                NWChem WFN1 Module
                                ------------------


                      Basis "ao basis" -> "ao basis" (cartesian)
                      -----
  h (Hydrogen)
  ------------
            Exponent  Coefficients 
       -------------- ---------------------------------------------------------
  1 S  1.87311370E+01  0.033495
  1 S  2.82539370E+00  0.234727
  1 S  6.40121700E-01  0.813757

  2 S  1.61277800E-01  1.000000



 Summary of "ao basis" -> "ao basis" (cartesian)
 ------------------------------------------------------------------------------
       Tag                 Description            Shells   Functions and Types
 ---------------- ------------------------------  ------  ---------------------
 h                           6-31g*                  2        2   2s



      Superposition of Atomic Density Guess
      -------------------------------------

 Sum of atomic energies:          -0.49823254

      Non-variational initial energy
      ------------------------------

 Total energy =      -0.498233
 1-e energy   =      -0.498233
 2-e energy   =       0.000000
 HOMO         =      -0.498233
 LUMO         =       0.460935

 iteration              energy           error          err Na          err Nb          err Ca          err Cb
 ---------              ------           -----          ------          ------          ------          ------
         0         -0.49823291        0.000000        0.000000        0.000000        0.000000        0.000000

 Reached Convergence

 WFN1                     :
 --------------------------
 Total WFN1 energy =          -0.4982329107
 1-Electron energy =          -0.4982329107
 2-Electron energy =           0.0000000000
 Entropy energy    =           0.0000000000
 Nuclear energy    =           0.0000000000

 conventional Hartree-Fock:
 --------------------------
 Total SCF energy  =          -0.4982329107
 2-Electron energy =           0.0000000000


      Natural orbital occupation numbers

          Alpha     Beta
         ------   ------
     1   1.0000   0.0000
     2   0.0000   0.0000

                     WFN1 Final Correlation function energies
                     ----------------------------------------

              alpha       beta  
            --------    --------
       1     -0.4982      0.1305
       2      0.9162      1.0726

                  WFN1 Final alpha Correlation Function Analysis
                  ----------------------------------------------


 global array: Ca[1:2,1:2],  handle: -988 

            1           2  
       ----------- -----------
   1       1.00000    -0.00000
   2      -0.00000     1.00000

                   WFN1 Final beta Correlation Function Analysis
                   ---------------------------------------------


 global array: Cb[1:2,1:2],  handle: -987 

            1           2  
       ----------- -----------
   1       1.00000    -0.00000
   2      -0.00000     1.00000

                     WFN1 Final Alpha Natural Orbital Analysis
                     -----------------------------------------

 Vector    1  Occ=1.000000D+00  E=-4.982329D-01
              MO Center=  0.0D+00,  0.0D+00,  0.0D+00, r^2= 8.0D-01
   Bfn.  Coefficient  Atom+Function         Bfn.  Coefficient  Atom+Function  
  ----- ------------  ---------------      ----- ------------  ---------------
     2      0.665449  1 H  s                  1      0.427430  1 H  s          

 Vector    2  Occ=0.000000D+00  E= 9.161928D-01
              MO Center=  0.0D+00,  0.0D+00,  0.0D+00, r^2= 1.2D+00
   Bfn.  Coefficient  Atom+Function         Bfn.  Coefficient  Atom+Function  
  ----- ------------  ---------------      ----- ------------  ---------------
     1      1.257798  1 H  s                  2     -1.149752  1 H  s          


                     WFN1 Final Beta Natural Orbital Analysis
                     ----------------------------------------

 Vector    1  Occ=0.000000D+00  E= 1.304787D-01
              MO Center=  0.0D+00,  0.0D+00,  0.0D+00, r^2= 8.0D-01
   Bfn.  Coefficient  Atom+Function         Bfn.  Coefficient  Atom+Function  
  ----- ------------  ---------------      ----- ------------  ---------------
     2      0.665449  1 H  s                  1      0.427430  1 H  s          

 Vector    2  Occ=0.000000D+00  E= 1.072618D+00
              MO Center=  0.0D+00,  0.0D+00,  0.0D+00, r^2= 1.2D+00
   Bfn.  Coefficient  Atom+Function         Bfn.  Coefficient  Atom+Function  
  ----- ------------  ---------------      ----- ------------  ---------------
     1      1.257798  1 H  s                  2     -1.149752  1 H  s          


 Task  times  cpu:        0.0s     wall:        0.0s


                                NWChem Input Module
                                -------------------



                                NWChem WFN1 Module
                                ------------------



      Superposition of Atomic Density Guess
      -------------------------------------

 Sum of atomic energies:          -0.49823254

      Non-variational initial energy
      ------------------------------

 Total energy =      -0.498233
 1-e energy   =      -0.498233
 2-e energy   =       0.000000
 HOMO         =      -0.498233
 LUMO         =       0.460935

 iteration              energy           error          err Na          err Nb          err Ca          err Cb
 ---------              ------           -----          ------          ------          ------          ------
         1         -0.79616405        0.019841        0.000000        0.000000        0.002204        0.017637
         2         -0.79720115        0.055886        0.000000        0.000000        0.011457        0.044429
         3         -0.79720117        0.055731        0.000000        0.000000        0.011400        0.044331
         4         -0.79720117        0.011454        0.000000        0.000000        0.011400        0.000054
         5         -0.79353737        0.000072        0.000000        0.000000        0.000018        0.000054
         6         -0.79718983        0.020825        0.000000        0.000000        0.012794        0.008030
         7         -0.79720117        0.019018        0.000000        0.000000        0.011398        0.007620
         8         -0.79720117        0.019020        0.000000        0.000000        0.011400        0.007620
         9         -0.79353737        0.007611        0.000000        0.000000        0.000018        0.007592
        10         -0.79718983        0.471295        0.000000        0.000000        0.012794        0.458501
        11         -0.79720117        0.469653        0.000000        0.000000        0.011398        0.458255
        12         -0.79720117        0.469657        0.000000        0.000000        0.011401        0.458256
        13         -0.79720117        0.469656        0.000000        0.000000        0.011400        0.458255
        14         -0.79720117        0.018766        0.000000        0.000000        0.011400        0.007366
        15         -0.79353737        0.007358        0.000000        0.000000        0.000018        0.007339
        16         -0.79718983        0.471134        0.000000        0.000000        0.012794        0.458339
        17         -0.79720117        0.468860        0.000000        0.000000        0.011398        0.457462
        18         -0.79720117        0.468864        0.000000        0.000000        0.011400        0.457464
        19         -0.79720117        0.016999        0.000000        0.000000        0.011400        0.005599
        20         -0.79353737        0.005597        0.000000        0.000000        0.000018        0.005579
        21         -0.79718983        0.449755        0.000000        0.000000        0.012794        0.436961
        22         -0.79720117        0.443073        0.000000        0.000000        0.011398        0.431674
        23         -0.79720117        0.443082        0.000000        0.000000        0.011400        0.431682
        24         -0.79720117        0.012169        0.000000        0.000000        0.011400        0.000769
        25         -0.79353737        0.000784        0.000000        0.000000        0.000018        0.000766
        26         -0.79718983        0.118619        0.000000        0.000000        0.012794        0.105825
        27         -0.79720117        0.112410        0.000000        0.000000        0.011398        0.101011
        28         -0.79720117        0.112418        0.000000        0.000000        0.011400        0.101018
        29         -0.79720117        0.011400        0.000000        0.000000        0.011400        0.000000
        30         -0.79353737        0.000018        0.000000        0.000000        0.000018        0.000000
        31         -0.79718983        0.012812        0.000000        0.000000        0.012794        0.000017
        32         -0.79720117        0.011415        0.000000        0.000000        0.011398        0.000017
        33         -0.79720117        0.011417        0.000000        0.000000        0.011400        0.000017
        34         -0.79353737        0.000035        0.000000        0.000000        0.000018        0.000016
        35         -0.79718983        0.015263        0.000000        0.000000        0.012794        0.002468
        36         -0.79720117        0.013740        0.000000        0.000000        0.011398        0.002341
        37         -0.79720117        0.013741        0.000000        0.000000        0.011400        0.002341
        38         -0.79720117        0.013742        0.000000        0.000000        0.011400        0.002341
        39         -0.79353737        0.002351        0.000000        0.000000        0.000018        0.002333
        40         -0.79718983        0.282704        0.000000        0.000000        0.012794        0.269910
        41         -0.79720117        0.272213        0.000000        0.000000        0.011398        0.260815
        42         -0.79720117        0.272227        0.000000        0.000000        0.011400        0.260827
        43         -0.79720117        0.011523        0.000000        0.000000        0.011400        0.000122
        44         -0.79353737        0.000140        0.000000        0.000000        0.000018        0.000122
        45         -0.79718983        0.030892        0.000000        0.000000        0.012794        0.018098
        46         -0.79720117        0.028580        0.000000        0.000000        0.011398        0.017182
        47         -0.79720117        0.028583        0.000000        0.000000        0.011400        0.017183
        48         -0.79720117        0.011402        0.000000        0.000000        0.011400        0.000002
        49         -0.79353737        0.000020        0.000000        0.000000        0.000018        0.000002
        50         -0.79718983        0.013038        0.000000        0.000000        0.012794        0.000244
        51         -0.79720117        0.011630        0.000000        0.000000        0.011398        0.000231
        52         -0.79720117        0.011631        0.000000        0.000000        0.011400        0.000231
        53         -0.79353737        0.000248        0.000000        0.000000        0.000018        0.000230
        54         -0.79718983        0.046550        0.000000        0.000000        0.012794        0.033756
        55         -0.79720117        0.043476        0.000000        0.000000        0.011398        0.032077
        56         -0.79720117        0.043480        0.000000        0.000000        0.011400        0.032080
        57         -0.79720117        0.011417        0.000000        0.000000        0.011400        0.000017
        58         -0.79353737        0.000035        0.000000        0.000000        0.000018        0.000017
        59         -0.79718983        0.015313        0.000000        0.000000        0.012794        0.002518
        60         -0.79720117        0.013787        0.000000        0.000000        0.011398        0.002389
        61         -0.79353742        0.002398        0.000000        0.000000        0.000018        0.002380
        62         -0.79718983        0.286732        0.000000        0.000000        0.012794        0.273938
        63         -0.79720117        0.276201        0.000000        0.000000        0.011398        0.264802
        64         -0.79720117        0.276215        0.000000        0.000000        0.011400        0.264815
        65         -0.79720117        0.011492        0.000000        0.000000        0.011400        0.000092
        66         -0.79353737        0.000110        0.000000        0.000000        0.000018        0.000092
        67         -0.79718983        0.026460        0.000000        0.000000        0.012794        0.013666
        68         -0.79720117        0.024369        0.000000        0.000000        0.011398        0.012971
        69         -0.79720117        0.011399        0.000000        0.000000        0.011398        0.000001
        70         -0.79353742        0.000019        0.000000        0.000000        0.000018        0.000001
        71         -0.79718983        0.012870        0.000000        0.000000        0.012794        0.000076
        72         -0.79720117        0.011470        0.000000        0.000000        0.011398        0.000072
        73         -0.79720117        0.011472        0.000000        0.000000        0.011400        0.000072
        74         -0.79353737        0.000090        0.000000        0.000000        0.000018        0.000072
        75         -0.79718983        0.023494        0.000000        0.000000        0.012794        0.010700
        76         -0.79720117        0.021553        0.000000        0.000000        0.011398        0.010154
        77         -0.79720117        0.021556        0.000000        0.000000        0.011401        0.010155
        78         -0.79720117        0.021555        0.000000        0.000000        0.011400        0.010155
        79         -0.79353737        0.010136        0.000000        0.000000        0.000018        0.010118
        80         -0.79718983        0.443243        0.000000        0.000000        0.012794        0.430449
        81         -0.79720117        0.447045        0.000000        0.000000        0.011398        0.435647
        82         -0.79720117        0.024548        0.000000        0.000000        0.011398        0.013150
        83         -0.79720117        0.011401        0.000000        0.000000        0.011398        0.000003
        84         -0.79353742        0.000021        0.000000        0.000000        0.000018        0.000003
        85         -0.79718983        0.013405        0.000000        0.000000        0.012794        0.000610
        86         -0.79720117        0.012041        0.000000        0.000000        0.011398        0.000642
        87         -0.79720117        0.012043        0.000000        0.000000        0.011400        0.000642
        88         -0.79353737        0.000658        0.000000        0.000000        0.000018        0.000640
        89         -0.79718983        0.131174        0.000000        0.000000        0.012794        0.118380
        90         -0.79720117        0.135099        0.000000        0.000000        0.011398        0.123701
        91         -0.79720117        0.135094        0.000000        0.000000        0.011400        0.123693
        92         -0.79720117        0.011402        0.000000        0.000000        0.011400        0.000002
        93         -0.79353737        0.000020        0.000000        0.000000        0.000018        0.000002
        94         -0.79718983        0.013112        0.000000        0.000000        0.012794        0.000317
        95         -0.79720117        0.011732        0.000000        0.000000        0.011398        0.000334
        96         -0.79720117        0.011734        0.000000        0.000000        0.011400        0.000334
        97         -0.79353737        0.000351        0.000000        0.000000        0.000018        0.000333
        98         -0.79718983        0.077231        0.000000        0.000000        0.012794        0.064436
        99         -0.79720117        0.078962        0.000000        0.000000        0.011398        0.067564
       100         -0.79720117        0.078959        0.000000        0.000000        0.011400        0.067559
       101         -0.79720117        0.011775        0.000000        0.000000        0.011400        0.000374
       102         -0.79353737        0.000391        0.000000        0.000000        0.000018        0.000373
       103         -0.79718983        0.084621        0.000000        0.000000        0.012794        0.071827
       104         -0.79720117        0.086677        0.000000        0.000000        0.011398        0.075279
       105         -0.79720117        0.011942        0.000000        0.000000        0.011398        0.000544
       106         -0.79720117        0.011944        0.000000        0.000000        0.011400        0.000544
       107         -0.79353737        0.000560        0.000000        0.000000        0.000018        0.000542
       108         -0.79718983        0.114525        0.000000        0.000000        0.012794        0.101730
       109         -0.79720117        0.117817        0.000000        0.000000        0.011398        0.106419
       110         -0.79720117        0.117812        0.000000        0.000000        0.011400        0.106412
       111         -0.79720117        0.011401        0.000000        0.000000        0.011400        0.000000
       112         -0.79353737        0.000019        0.000000        0.000000        0.000018        0.000000
       113         -0.79718983        0.012877        0.000000        0.000000        0.012794        0.000082
       114         -0.79720117        0.011485        0.000000        0.000000        0.011398        0.000087
       115         -0.79720117        0.011487        0.000000        0.000000        0.011400        0.000087
       116         -0.79353737        0.000105        0.000000        0.000000        0.000018        0.000086
       117         -0.79718983        0.030159        0.000000        0.000000        0.012794        0.017365
       118         -0.79720117        0.029657        0.000000        0.000000        0.011398        0.018259
       119         -0.79720117        0.011406        0.000000        0.000000        0.011398        0.000007
       120         -0.79353742        0.000025        0.000000        0.000000        0.000018        0.000007
       121         -0.79718983        0.014236        0.000000        0.000000        0.012794        0.001441
       122         -0.79720117        0.012915        0.000000        0.000000        0.011398        0.001517
       123         -0.79720117        0.012917        0.000000        0.000000        0.011400        0.001517
       124         -0.79353737        0.001530        0.000000        0.000000        0.000018        0.001511
       125         -0.79718983        0.257460        0.000000        0.000000        0.012794        0.244666
       126         -0.79720117        0.264699        0.000000        0.000000        0.011398        0.253300
       127         -0.79720117        0.264685        0.000000        0.000000        0.011401        0.253284
       128         -0.79720117        0.264688        0.000000        0.000000        0.011400        0.253288
       129         -0.79720117        0.011520        0.000000        0.000000        0.011400        0.000120
       130         -0.79353737        0.000137        0.000000        0.000000        0.000018        0.000119
       131         -0.79718983        0.036639        0.000000        0.000000        0.012794        0.023845
       132         -0.79720117        0.036461        0.000000        0.000000        0.011398        0.025063
       133         -0.79720117        0.036461        0.000000        0.000000        0.011400        0.025061
       134         -0.79720117        0.011417        0.000000        0.000000        0.011400        0.000017
       135         -0.79353737        0.000035        0.000000        0.000000        0.000018        0.000017
       136         -0.79718983        0.016258        0.000000        0.000000        0.012794        0.003464
       137         -0.79720117        0.015043        0.000000        0.000000        0.011398        0.003645
       138         -0.79720117        0.015045        0.000000        0.000000        0.011400        0.003645
       139         -0.79353737        0.003650        0.000000        0.000000        0.000018        0.003631
       140         -0.79718983        0.430961        0.000000        0.000000        0.012794        0.418166
       141         -0.79720117        0.435701        0.000000        0.000000        0.011398        0.424303
       142         -0.79720117        0.435695        0.000000        0.000000        0.011400        0.424295
       143         -0.79720117        0.012097        0.000000        0.000000        0.011400        0.000697
       144         -0.79353737        0.000712        0.000000        0.000000        0.000018        0.000694
       145         -0.79718983        0.140113        0.000000        0.000000        0.012794        0.127318
       146         -0.79720117        0.144361        0.000000        0.000000        0.011398        0.132963
       147         -0.79720117        0.144355        0.000000        0.000000        0.011400        0.132954
       148         -0.79720117        0.011403        0.000000        0.000000        0.011400        0.000003
       149         -0.79353737        0.000021        0.000000        0.000000        0.000018        0.000003
       150         -0.79718983        0.013379        0.000000        0.000000        0.012794        0.000585
       151         -0.79720117        0.012014        0.000000        0.000000        0.011398        0.000615
       152         -0.79353742        0.000631        0.000000        0.000000        0.000018        0.000613
       153         -0.79718983        0.126682        0.000000        0.000000        0.012794        0.113887
       154         -0.79720117        0.130440        0.000000        0.000000        0.011398        0.119042
       155         -0.79720117        0.130434        0.000000        0.000000        0.011400        0.119034
       156         -0.79720117        0.011401        0.000000        0.000000        0.011400        0.000001
       157         -0.79353737        0.000019        0.000000        0.000000        0.000018        0.000001
       158         -0.79718983        0.013022        0.000000        0.000000        0.012794        0.000227
       159         -0.79720117        0.011638        0.000000        0.000000        0.011398        0.000239
       160         -0.79720117        0.011640        0.000000        0.000000        0.011400        0.000239
       161         -0.79353737        0.000257        0.000000        0.000000        0.000018        0.000239
       162         -0.79718983        0.059640        0.000000        0.000000        0.012794        0.046845
       163         -0.79720117        0.060570        0.000000        0.000000        0.011398        0.049172
       164         -0.79720117        0.060568        0.000000        0.000000        0.011400        0.049168
       165         -0.79720117        0.011531        0.000000        0.000000        0.011400        0.000131
       166         -0.79353737        0.000149        0.000000        0.000000        0.000018        0.000131
       167         -0.79718983        0.038844        0.000000        0.000000        0.012794        0.026049
       168         -0.79720117        0.038775        0.000000        0.000000        0.011398        0.027377
       169         -0.79720117        0.038775        0.000000        0.000000        0.011400        0.027375
       170         -0.79720117        0.011422        0.000000        0.000000        0.011400        0.000022
       171         -0.79353737        0.000040        0.000000        0.000000        0.000018        0.000022
       172         -0.79718983        0.017260        0.000000        0.000000        0.012794        0.004465
       173         -0.79720117        0.016097        0.000000        0.000000        0.011398        0.004699
       174         -0.79720117        0.016099        0.000000        0.000000        0.011400        0.004698
       175         -0.79353737        0.004700        0.000000        0.000000        0.000018        0.004681
       176         -0.79718983        0.463698        0.000000        0.000000        0.012794        0.450903
       177         -0.79720117        0.464939        0.000000        0.000000        0.011398        0.453541
       178         -0.79720117        0.464937        0.000000        0.000000        0.011400        0.453537
       179         -0.79720117        0.414875        0.000000        0.000000        0.011400        0.403475
       180         -0.79720117        0.011415        0.000000        0.000000        0.011400        0.000014
       181         -0.79353737        0.000033        0.000000        0.000000        0.000018        0.000014
       182         -0.79718983        0.015705        0.000000        0.000000        0.012794        0.002910
       183         -0.79720117        0.014461        0.000000        0.000000        0.011398        0.003063
       184         -0.79720117        0.014463        0.000000        0.000000        0.011401        0.003063
       185         -0.79720117        0.014463        0.000000        0.000000        0.011400        0.003063
       186         -0.79353737        0.003070        0.000000        0.000000        0.000018        0.003052
       187         -0.79718983        0.399467        0.000000        0.000000        0.012794        0.386673
       188         -0.79720117        0.405778        0.000000        0.000000        0.011398        0.394379
       189         -0.79720117        0.405769        0.000000        0.000000        0.011400        0.394368
       190         -0.79720117        0.011404        0.000000        0.000000        0.011400        0.000003
       191         -0.79353737        0.000021        0.000000        0.000000        0.000018        0.000003
       192         -0.79718983        0.013459        0.000000        0.000000        0.012794        0.000665
       193         -0.79720117        0.012098        0.000000        0.000000        0.011398        0.000700
       194         -0.79720117        0.012100        0.000000        0.000000        0.011400        0.000700
       195         -0.79353737        0.000715        0.000000        0.000000        0.000018        0.000697
       196         -0.79718983        0.140641        0.000000        0.000000        0.012794        0.127847
       197         -0.79720117        0.144908        0.000000        0.000000        0.011398        0.133510
       198         -0.79720117        0.144902        0.000000        0.000000        0.011400        0.133501
       199         -0.79720117        0.011403        0.000000        0.000000        0.011400        0.000003
       200         -0.79353737        0.000021        0.000000        0.000000        0.000018        0.000003
       201         -0.79718983        0.013399        0.000000        0.000000        0.012794        0.000605
       202         -0.79720117        0.012035        0.000000        0.000000        0.011398        0.000637
       203         -0.79720117        0.012038        0.000000        0.000000        0.011401        0.000637
       204         -0.79720117        0.012037        0.000000        0.000000        0.011400        0.000637
       205         -0.79353737        0.000653        0.000000        0.000000        0.000018        0.000634
       206         -0.79718983        0.130233        0.000000        0.000000        0.012794        0.117439
       207         -0.79720117        0.134124        0.000000        0.000000        0.011398        0.122726
       208         -0.79720117        0.134118        0.000000        0.000000        0.011400        0.122718
       209         -0.79720117        0.011402        0.000000        0.000000        0.011400        0.000001
       210         -0.79353737        0.000020        0.000000        0.000000        0.000018        0.000001
       211         -0.79718983        0.013091        0.000000        0.000000        0.012794        0.000296
       212         -0.79720117        0.011710        0.000000        0.000000        0.011398        0.000312
       213         -0.79353742        0.000329        0.000000        0.000000        0.000018        0.000311
       214         -0.79718983        0.073205        0.000000        0.000000        0.012794        0.060411
       215         -0.79720117        0.074757        0.000000        0.000000        0.011398        0.063359
       216         -0.79720117        0.074755        0.000000        0.000000        0.011400        0.063354
       217         -0.79720117        0.011701        0.000000        0.000000        0.011400        0.000301
       218         -0.79353737        0.000318        0.000000        0.000000        0.000018        0.000300
       219         -0.79718983        0.071171        0.000000        0.000000        0.012794        0.058377
       220         -0.79720117        0.072631        0.000000        0.000000        0.011398        0.061233
       221         -0.79720117        0.011666        0.000000        0.000000        0.011398        0.000268
       222         -0.79353742        0.000285        0.000000        0.000000        0.000018        0.000267
       223         -0.79718983        0.065044        0.000000        0.000000        0.012794        0.052250
       224         -0.79720117        0.066225        0.000000        0.000000        0.011398        0.054826
       225         -0.79720117        0.066223        0.000000        0.000000        0.011400        0.054823
       226         -0.79720117        0.011586        0.000000        0.000000        0.011400        0.000186
       227         -0.79353737        0.000204        0.000000        0.000000        0.000018        0.000186
       228         -0.79718983        0.049534        0.000000        0.000000        0.012794        0.036739
       229         -0.79720117        0.049985        0.000000        0.000000        0.011398        0.038587
       230         -0.79720117        0.049984        0.000000        0.000000        0.011400        0.038584
       231         -0.79720117        0.011462        0.000000        0.000000        0.011400        0.000061
       232         -0.79353737        0.000079        0.000000        0.000000        0.000018        0.000061
       233         -0.79718983        0.025120        0.000000        0.000000        0.012794        0.012326
       234         -0.79720117        0.024362        0.000000        0.000000        0.011398        0.012964
       235         -0.79720117        0.024363        0.000000        0.000000        0.011400        0.012963
       236         -0.79720117        0.011403        0.000000        0.000000        0.011400        0.000003
       237         -0.79353737        0.000021        0.000000        0.000000        0.000018        0.000003
       238         -0.79718983        0.013384        0.000000        0.000000        0.012794        0.000590
       239         -0.79720117        0.012019        0.000000        0.000000        0.011398        0.000621
       240         -0.79720117        0.012021        0.000000        0.000000        0.011401        0.000621
       241         -0.79720117        0.012021        0.000000        0.000000        0.011400        0.000621
       242         -0.79353737        0.000637        0.000000        0.000000        0.000018        0.000618
       243         -0.79718983        0.127521        0.000000        0.000000        0.012794        0.114726
       244         -0.79720117        0.131311        0.000000        0.000000        0.011398        0.119912
       245         -0.79720117        0.011400        0.000000        0.000000        0.011398        0.000001
       246         -0.79720117        0.011401        0.000000        0.000000        0.011400        0.000001
       247         -0.79353737        0.000019        0.000000        0.000000        0.000018        0.000001
       248         -0.79718983        0.013036        0.000000        0.000000        0.012794        0.000241
       249         -0.79720117        0.011653        0.000000        0.000000        0.011398        0.000254
       250         -0.79720117        0.011655        0.000000        0.000000        0.011401        0.000254
       251         -0.79720117        0.011654        0.000000        0.000000        0.011400        0.000254
       252         -0.79353737        0.000271        0.000000        0.000000        0.000018        0.000253
       253         -0.79718983        0.062419        0.000000        0.000000        0.012794        0.049625
       254         -0.79720117        0.063479        0.000000        0.000000        0.011398        0.052080
       255         -0.79720117        0.011556        0.000000        0.000000        0.011398        0.000157
       256         -0.79353742        0.000175        0.000000        0.000000        0.000018        0.000157
       257         -0.79718983        0.043977        0.000000        0.000000        0.012794        0.031182
       258         -0.79720117        0.044160        0.000000        0.000000        0.011398        0.032761
       259         -0.79720117        0.044159        0.000000        0.000000        0.011400        0.032759
       260         -0.79720117        0.011438        0.000000        0.000000        0.011400        0.000037
       261         -0.79353737        0.000056        0.000000        0.000000        0.000018        0.000037
       262         -0.79718983        0.020340        0.000000        0.000000        0.012794        0.007545
       263         -0.79720117        0.019337        0.000000        0.000000        0.011398        0.007938
       264         -0.79720117        0.019338        0.000000        0.000000        0.011401        0.007938
       265         -0.79720117        0.019338        0.000000        0.000000        0.011400        0.007938
       266         -0.79353737        0.007927        0.000000        0.000000        0.000018        0.007909
       267         -0.79718983        0.430474        0.000000        0.000000        0.012794        0.417680
       268         -0.79720117        0.422275        0.000000        0.000000        0.011398        0.410876
       269         -0.79720117        0.422286        0.000000        0.000000        0.011400        0.410886
       270         -0.79720117        0.011403        0.000000        0.000000        0.011400        0.000003
       271         -0.79353737        0.000021        0.000000        0.000000        0.000018        0.000003
       272         -0.79718983        0.013211        0.000000        0.000000        0.012794        0.000417
       273         -0.79720117        0.011794        0.000000        0.000000        0.011398        0.000396
       274         -0.79720117        0.011796        0.000000        0.000000        0.011400        0.000396
       275         -0.79353737        0.000412        0.000000        0.000000        0.000018        0.000394
       276         -0.79718983        0.069543        0.000000        0.000000        0.012794        0.056748
       277         -0.79720117        0.065399        0.000000        0.000000        0.011398        0.054001
       278         -0.79720117        0.011508        0.000000        0.000000        0.011398        0.000110
       279         -0.79353742        0.000128        0.000000        0.000000        0.000018        0.000110
       280         -0.79718983        0.029079        0.000000        0.000000        0.012794        0.016285
       281         -0.79720117        0.026858        0.000000        0.000000        0.011398        0.015459
       282         -0.79720117        0.026861        0.000000        0.000000        0.011400        0.015460
       283         -0.79720117        0.011401        0.000000        0.000000        0.011400        0.000001
       284         -0.79353737        0.000019        0.000000        0.000000        0.000018        0.000001
       285         -0.79718983        0.012954        0.000000        0.000000        0.012794        0.000159
       286         -0.79720117        0.011550        0.000000        0.000000        0.011398        0.000151
       287         -0.79720117        0.011552        0.000000        0.000000        0.011401        0.000151
       288         -0.79720117        0.011551        0.000000        0.000000        0.011400        0.000151
       289         -0.79353737        0.000169        0.000000        0.000000        0.000018        0.000151
       290         -0.79718983        0.035054        0.000000        0.000000        0.012794        0.022260
       291         -0.79720117        0.032537        0.000000        0.000000        0.011398        0.021139
       292         -0.79720117        0.032541        0.000000        0.000000        0.011400        0.021140
       293         -0.79720117        0.011404        0.000000        0.000000        0.011400        0.000004
       294         -0.79353737        0.000022        0.000000        0.000000        0.000018        0.000004
       295         -0.79718983        0.013337        0.000000        0.000000        0.012794        0.000543
       296         -0.79720117        0.011913        0.000000        0.000000        0.011398        0.000515
       297         -0.79720117        0.011915        0.000000        0.000000        0.011400        0.000515
       298         -0.79353737        0.000531        0.000000        0.000000        0.000018        0.000513
       299         -0.79718983        0.085706        0.000000        0.000000        0.012794        0.072912
       300         -0.79720117        0.080849        0.000000        0.000000        0.011398        0.069451
       301         -0.79720117        0.080855        0.000000        0.000000        0.011400        0.069455
       302         -0.79720117        0.011677        0.000000        0.000000        0.011400        0.000277
       303         -0.79353737        0.000294        0.000000        0.000000        0.000018        0.000276
       304         -0.79718983        0.053078        0.000000        0.000000        0.012794        0.040283
       305         -0.79720117        0.049693        0.000000        0.000000        0.011398        0.038295
       306         -0.79720117        0.049698        0.000000        0.000000        0.011400        0.038298
       307         -0.79720117        0.011432        0.000000        0.000000        0.011400        0.000032
       308         -0.79353737        0.000050        0.000000        0.000000        0.000018        0.000032
       309         -0.79718983        0.017553        0.000000        0.000000        0.012794        0.004758
       310         -0.79720117        0.015913        0.000000        0.000000        0.011398        0.004514
       311         -0.79720117        0.015915        0.000000        0.000000        0.011400        0.004515
       312         -0.79353737        0.004516        0.000000        0.000000        0.000018        0.004498
       313         -0.79718983        0.415454        0.000000        0.000000        0.012794        0.402660
       314         -0.79720117        0.406458        0.000000        0.000000        0.011398        0.395059
       315         -0.79720117        0.406470        0.000000        0.000000        0.011400        0.395070
       316         -0.79720117        0.011400        0.000000        0.000000        0.011400        0.000000
       317         -0.79353737        0.000018        0.000000        0.000000        0.000018        0.000000
       318         -0.79718983        0.012801        0.000000        0.000000        0.012794        0.000007
       319         -0.79720117        0.011405        0.000000        0.000000        0.011398        0.000006
       320         -0.79720117        0.011407        0.000000        0.000000        0.011400        0.000006
       321         -0.79353737        0.000025        0.000000        0.000000        0.000018        0.000006
       322         -0.79718983        0.013763        0.000000        0.000000        0.012794        0.000969
       323         -0.79720117        0.012317        0.000000        0.000000        0.011398        0.000919
       324         -0.79720117        0.012319        0.000000        0.000000        0.011400        0.000919
       325         -0.79353737        0.000934        0.000000        0.000000        0.000018        0.000916
       326         -0.79718983        0.137190        0.000000        0.000000        0.012794        0.124396
       327         -0.79720117        0.130281        0.000000        0.000000        0.011398        0.118883
       328         -0.79720117        0.130290        0.000000        0.000000        0.011400        0.118890
       329         -0.79720117        0.011401        0.000000        0.000000        0.011400        0.000001
       330         -0.79353737        0.000019        0.000000        0.000000        0.000018        0.000001
       331         -0.79718983        0.012886        0.000000        0.000000        0.012794        0.000092
       332         -0.79720117        0.011486        0.000000        0.000000        0.011398        0.000087
       333         -0.79720117        0.011487        0.000000        0.000000        0.011400        0.000087
       334         -0.79353737        0.000105        0.000000        0.000000        0.000018        0.000087
       335         -0.79718983        0.025734        0.000000        0.000000        0.012794        0.012939
       336         -0.79720117        0.023680        0.000000        0.000000        0.011398        0.012281
       337         -0.79720117        0.011399        0.000000        0.000000        0.011398        0.000000
       338         -0.79353742        0.000019        0.000000        0.000000        0.000018        0.000000
       339         -0.79718983        0.012854        0.000000        0.000000        0.012794        0.000060
       340         -0.79720117        0.011455        0.000000        0.000000        0.011398        0.000056
       341         -0.79720117        0.011457        0.000000        0.000000        0.011400        0.000056
       342         -0.79353737        0.000075        0.000000        0.000000        0.000018        0.000056
       343         -0.79718983        0.021204        0.000000        0.000000        0.012794        0.008409
       344         -0.79720117        0.019378        0.000000        0.000000        0.011398        0.007980
       345         -0.79353742        0.007969        0.000000        0.000000        0.000018        0.007951
       346         -0.79718983        0.470443        0.000000        0.000000        0.012794        0.457648
       347         -0.79720117        0.469684        0.000000        0.000000        0.011398        0.458285
       348         -0.79720117        0.469685        0.000000        0.000000        0.011400        0.458285
       349         -0.79720117        0.015553        0.000000        0.000000        0.011400        0.004153
       350         -0.79353737        0.004156        0.000000        0.000000        0.000018        0.004138
       351         -0.79718983        0.450333        0.000000        0.000000        0.012794        0.437538
       352         -0.79720117        0.453449        0.000000        0.000000        0.011398        0.442050
       353         -0.79720117        0.453444        0.000000        0.000000        0.011400        0.442044
       354         -0.79720117        0.011431        0.000000        0.000000        0.011400        0.000031
       355         -0.79353737        0.000049        0.000000        0.000000        0.000018        0.000031
       356         -0.79718983        0.019003        0.000000        0.000000        0.012794        0.006208
       357         -0.79720117        0.017931        0.000000        0.000000        0.011398        0.006532
       358         -0.79720117        0.017932        0.000000        0.000000        0.011400        0.006532
       359         -0.79353737        0.006526        0.000000        0.000000        0.000018        0.006508
       360         -0.79718983        0.463731        0.000000        0.000000        0.012794        0.450936
       361         -0.79720117        0.458931        0.000000        0.000000        0.011398        0.447532
       362         -0.79720117        0.458937        0.000000        0.000000        0.011400        0.447537
       363         -0.79720117        0.012006        0.000000        0.000000        0.011400        0.000606
       364         -0.79353737        0.000622        0.000000        0.000000        0.000018        0.000604
       365         -0.79718983        0.097703        0.000000        0.000000        0.012794        0.084909
       366         -0.79720117        0.092337        0.000000        0.000000        0.011398        0.080939
       367         -0.79720117        0.092344        0.000000        0.000000        0.011400        0.080944
       368         -0.79720117        0.011894        0.000000        0.000000        0.011400        0.000494
       369         -0.79353737        0.000510        0.000000        0.000000        0.000018        0.000492
       370         -0.79718983        0.082869        0.000000        0.000000        0.012794        0.070075
       371         -0.79720117        0.078135        0.000000        0.000000        0.011398        0.066737
       372         -0.79720117        0.078143        0.000000        0.000000        0.011401        0.066743
       373         -0.79720117        0.078141        0.000000        0.000000        0.011400        0.066741
       374         -0.79720117        0.011639        0.000000        0.000000        0.011400        0.000239
       375         -0.79353737        0.000256        0.000000        0.000000        0.000018        0.000238
       376         -0.79718983        0.047675        0.000000        0.000000        0.012794        0.034881
       377         -0.79720117        0.044547        0.000000        0.000000        0.011398        0.033149
       378         -0.79720117        0.044551        0.000000        0.000000        0.011400        0.033151
       379         -0.79720117        0.011419        0.000000        0.000000        0.011400        0.000019
       380         -0.79353737        0.000037        0.000000        0.000000        0.000018        0.000019
       381         -0.79718983        0.015629        0.000000        0.000000        0.012794        0.002835
       382         -0.79720117        0.014087        0.000000        0.000000        0.011398        0.002689
       383         -0.79720117        0.014089        0.000000        0.000000        0.011400        0.002689
       384         -0.79353737        0.002698        0.000000        0.000000        0.000018        0.002679
       385         -0.79718983        0.310601        0.000000        0.000000        0.012794        0.297806
       386         -0.79720117        0.299909        0.000000        0.000000        0.011398        0.288511
       387         -0.79720117        0.012020        0.000000        0.000000        0.011398        0.000622
       388         -0.79353742        0.000638        0.000000        0.000000        0.000018        0.000620
       389         -0.79718983        0.099840        0.000000        0.000000        0.012794        0.087046
       390         -0.79720117        0.094385        0.000000        0.000000        0.011398        0.082987
       391         -0.79720117        0.094393        0.000000        0.000000        0.011400        0.082992
       392         -0.79720117        0.011944        0.000000        0.000000        0.011400        0.000543
       393         -0.79353737        0.000560        0.000000        0.000000        0.000018        0.000541
       394         -0.79718983        0.089490        0.000000        0.000000        0.012794        0.076695
       395         -0.79720117        0.084470        0.000000        0.000000        0.011398        0.073071
       396         -0.79720117        0.011734        0.000000        0.000000        0.011398        0.000335
       397         -0.79720117        0.011736        0.000000        0.000000        0.011400        0.000335
       398         -0.79353737        0.000352        0.000000        0.000000        0.000018        0.000334
       399         -0.79718983        0.061208        0.000000        0.000000        0.012794        0.048413
       400         -0.79720117        0.057445        0.000000        0.000000        0.011398        0.046046
       401         -0.79720117        0.057450        0.000000        0.000000        0.011400        0.046050
       402         -0.79720117        0.011462        0.000000        0.000000        0.011400        0.000062
       403         -0.79353737        0.000080        0.000000        0.000000        0.000018        0.000062
       404         -0.79718983        0.021995        0.000000        0.000000        0.012794        0.009200
       405         -0.79720117        0.020129        0.000000        0.000000        0.011398        0.008730
       406         -0.79720117        0.020131        0.000000        0.000000        0.011400        0.008731
       407         -0.79353737        0.008718        0.000000        0.000000        0.000018        0.008699
       408         -0.79718983        0.465002        0.000000        0.000000        0.012794        0.452207
       409         -0.79720117        0.465977        0.000000        0.000000        0.011398        0.454578
       410         -0.79720117        0.465976        0.000000        0.000000        0.011400        0.454576
       411         -0.79720117        0.013036        0.000000        0.000000        0.011400        0.001636
       412         -0.79353737        0.001648        0.000000        0.000000        0.000018        0.001630
       413         -0.79718983        0.271846        0.000000        0.000000        0.012794        0.259052
       414         -0.79720117        0.279267        0.000000        0.000000        0.011398        0.267868
       415         -0.79720117        0.279256        0.000000        0.000000        0.011400        0.267855
       416         -0.79720117        0.011402        0.000000        0.000000        0.011400        0.000001
       417         -0.79353737        0.000020        0.000000        0.000000        0.000018        0.000001
       418         -0.79718983        0.013077        0.000000        0.000000        0.012794        0.000282
       419         -0.79720117        0.011696        0.000000        0.000000        0.011398        0.000297
       420         -0.79720117        0.011697        0.000000        0.000000        0.011400        0.000297
       421         -0.79353737        0.000314        0.000000        0.000000        0.000018        0.000296
       422         -0.79718983        0.070468        0.000000        0.000000        0.012794        0.057674
       423         -0.79720117        0.071897        0.000000        0.000000        0.011398        0.060498
       424         -0.79720117        0.071894        0.000000        0.000000        0.011400        0.060494
       425         -0.79720117        0.011658        0.000000        0.000000        0.011400        0.000258
       426         -0.79353737        0.000275        0.000000        0.000000        0.000018        0.000257
       427         -0.79718983        0.063113        0.000000        0.000000        0.012794        0.050319
       428         -0.79720117        0.064205        0.000000        0.000000        0.011398        0.052807
       429         -0.79720117        0.064203        0.000000        0.000000        0.011400        0.052803
       430         -0.79720117        0.011565        0.000000        0.000000        0.011400        0.000165
       431         -0.79353737        0.000182        0.000000        0.000000        0.000018        0.000164
       432         -0.79718983        0.045364        0.000000        0.000000        0.012794        0.032570
       433         -0.79720117        0.045615        0.000000        0.000000        0.011398        0.034216
       434         -0.79720117        0.045614        0.000000        0.000000        0.011400        0.034214
       435         -0.79720117        0.011443        0.000000        0.000000        0.011400        0.000043
       436         -0.79353737        0.000061        0.000000        0.000000        0.000018        0.000042
       437         -0.79718983        0.021368        0.000000        0.000000        0.012794        0.008574
       438         -0.79720117        0.020418        0.000000        0.000000        0.011398        0.009020
       439         -0.79720117        0.020419        0.000000        0.000000        0.011400        0.009019
       440         -0.79353737        0.009005        0.000000        0.000000        0.000018        0.008986
       441         -0.79718983        0.392782        0.000000        0.000000        0.012794        0.379988
       442         -0.79720117        0.382957        0.000000        0.000000        0.011398        0.371559
       443         -0.79720117        0.382971        0.000000        0.000000        0.011400        0.371571
       444         -0.79720117        0.011400        0.000000        0.000000        0.011400        0.000000
       445         -0.79353737        0.000018        0.000000        0.000000        0.000018        0.000000
       446         -0.79718983        0.012800        0.000000        0.000000        0.012794        0.000005
       447         -0.79720117        0.011403        0.000000        0.000000        0.011398        0.000005
       448         -0.79720117        0.011405        0.000000        0.000000        0.011400        0.000005
       449         -0.79353737        0.000023        0.000000        0.000000        0.000018        0.000005
       450         -0.79718983        0.013540        0.000000        0.000000        0.012794        0.000746
       451         -0.79720117        0.012106        0.000000        0.000000        0.011398        0.000707
       452         -0.79353742        0.000723        0.000000        0.000000        0.000018        0.000705
       453         -0.79718983        0.110848        0.000000        0.000000        0.012794        0.098054
       454         -0.79720117        0.104945        0.000000        0.000000        0.011398        0.093547
       455         -0.79720117        0.104953        0.000000        0.000000        0.011400        0.093553
       456         -0.79720117        0.012266        0.000000        0.000000        0.011400        0.000866
       457         -0.79353737        0.000881        0.000000        0.000000        0.000018        0.000863
       458         -0.79718983        0.130723        0.000000        0.000000        0.012794        0.117929
       459         -0.79720117        0.124052        0.000000        0.000000        0.011398        0.112654
       460         -0.79720117        0.011399        0.000000        0.000000        0.011398        0.000000
       461         -0.79353742        0.000019        0.000000        0.000000        0.000018        0.000000
       462         -0.79718983        0.012849        0.000000        0.000000        0.012794        0.000055
       463         -0.79720117        0.011450        0.000000        0.000000        0.011398        0.000052
       464         -0.79720117        0.011452        0.000000        0.000000        0.011400        0.000052
       465         -0.79353737        0.000070        0.000000        0.000000        0.000018        0.000052
       466         -0.79718983        0.020505        0.000000        0.000000        0.012794        0.007710
       467         -0.79720117        0.018714        0.000000        0.000000        0.011398        0.007316
       468         -0.79720117        0.018716        0.000000        0.000000        0.011400        0.007316
       469         -0.79353737        0.007308        0.000000        0.000000        0.000018        0.007290
       470         -0.79718983        0.471025        0.000000        0.000000        0.012794        0.458231
       471         -0.79720117        0.468627        0.000000        0.000000        0.011398        0.457228
       472         -0.79720117        0.468630        0.000000        0.000000        0.011400        0.457230
       473         -0.79720117        0.016702        0.000000        0.000000        0.011400        0.005302
       474         -0.79353737        0.005301        0.000000        0.000000        0.000018        0.005283
       475         -0.79718983        0.442154        0.000000        0.000000        0.012794        0.429360
       476         -0.79720117        0.434784        0.000000        0.000000        0.011398        0.423385
       477         -0.79720117        0.434794        0.000000        0.000000        0.011400        0.423394
       478         -0.79720117        0.011488        0.000000        0.000000        0.011400        0.000087
       479         -0.79353737        0.000105        0.000000        0.000000        0.000018        0.000087
       480         -0.79718983        0.025762        0.000000        0.000000        0.012794        0.012968
       481         -0.79720117        0.023706        0.000000        0.000000        0.011398        0.012308
       482         -0.79720117        0.011399        0.000000        0.000000        0.011398        0.000000
       483         -0.79353742        0.000019        0.000000        0.000000        0.000018        0.000000
       484         -0.79718983        0.012854        0.000000        0.000000        0.012794        0.000060
       485         -0.79720117        0.011455        0.000000        0.000000        0.011398        0.000057
       486         -0.79720117        0.011457        0.000000        0.000000        0.011400        0.000057
       487         -0.79353737        0.000075        0.000000        0.000000        0.000018        0.000057
       488         -0.79718983        0.021286        0.000000        0.000000        0.012794        0.008492
       489         -0.79720117        0.019456        0.000000        0.000000        0.011398        0.008058
       490         -0.79720117        0.019459        0.000000        0.000000        0.011400        0.008058
       491         -0.79353737        0.008047        0.000000        0.000000        0.000018        0.008029
       492         -0.79718983        0.470110        0.000000        0.000000        0.012794        0.457315
       493         -0.79720117        0.469533        0.000000        0.000000        0.011398        0.458134
       494         -0.79720117        0.469534        0.000000        0.000000        0.011400        0.458134
       495         -0.79720117        0.015182        0.000000        0.000000        0.011400        0.003782
       496         -0.79353737        0.003786        0.000000        0.000000        0.000018        0.003768
       497         -0.79718983        0.436887        0.000000        0.000000        0.012794        0.424092
       498         -0.79720117        0.441207        0.000000        0.000000        0.011398        0.429809
       499         -0.79720117        0.441201        0.000000        0.000000        0.011400        0.429801
       500         -0.79720117        0.013922        0.000000        0.000000        0.011400        0.002522
       501         -0.79353737        0.002531        0.000000        0.000000        0.000018        0.002513
       502         -0.79718983        0.360179        0.000000        0.000000        0.012794        0.347385
       503         -0.79720117        0.367490        0.000000        0.000000        0.011398        0.356092
       504         -0.79720117        0.367480        0.000000        0.000000        0.011400        0.356080
       505         -0.79720117        0.011400        0.000000        0.000000        0.011400        0.000000
       506         -0.79353737        0.000018        0.000000        0.000000        0.000018        0.000000
       507         -0.79718983        0.012796        0.000000        0.000000        0.012794        0.000001
       508         -0.79720117        0.011400        0.000000        0.000000        0.011398        0.000002
       509         -0.79720117        0.011402        0.000000        0.000000        0.011401        0.000002
       510         -0.79720117        0.011402        0.000000        0.000000        0.011400        0.000002
       511         -0.79353737        0.000020        0.000000        0.000000        0.000018        0.000002
       512         -0.79718983        0.013114        0.000000        0.000000        0.012794        0.000320
       513         -0.79720117        0.011735        0.000000        0.000000        0.011398        0.000337
       514         -0.79720117        0.011737        0.000000        0.000000        0.011400        0.000337
       515         -0.79353737        0.000354        0.000000        0.000000        0.000018        0.000336
       516         -0.79718983        0.077748        0.000000        0.000000        0.012794        0.064954
       517         -0.79720117        0.079503        0.000000        0.000000        0.011398        0.068105
       518         -0.79720117        0.079500        0.000000        0.000000        0.011400        0.068100
       519         -0.79720117        0.011785        0.000000        0.000000        0.011400        0.000384
       520         -0.79353737        0.000401        0.000000        0.000000        0.000018        0.000383
       521         -0.79718983        0.086392        0.000000        0.000000        0.012794        0.073598
       522         -0.79720117        0.088525        0.000000        0.000000        0.011398        0.077126
       523         -0.79720117        0.011991        0.000000        0.000000        0.011398        0.000593
       524         -0.79353742        0.000609        0.000000        0.000000        0.000018        0.000590
       525         -0.79718983        0.122835        0.000000        0.000000        0.012794        0.110041
       526         -0.79720117        0.126449        0.000000        0.000000        0.011398        0.115050
       527         -0.79720117        0.126442        0.000000        0.000000        0.011401        0.115041
       528         -0.79720117        0.126443        0.000000        0.000000        0.011400        0.115043
       529         -0.79720117        0.011401        0.000000        0.000000        0.011400        0.000001
       530         -0.79353737        0.000019        0.000000        0.000000        0.000018        0.000001
       531         -0.79718983        0.012963        0.000000        0.000000        0.012794        0.000168
       532         -0.79720117        0.011576        0.000000        0.000000        0.011398        0.000177
       533         -0.79720117        0.011577        0.000000        0.000000        0.011400        0.000177
       534         -0.79353737        0.000195        0.000000        0.000000        0.000018        0.000176
       535         -0.79718983        0.047777        0.000000        0.000000        0.012794        0.034982
       536         -0.79720117        0.048144        0.000000        0.000000        0.011398        0.036745
       537         -0.79720117        0.048143        0.000000        0.000000        0.011400        0.036743
       538         -0.79720117        0.011453        0.000000        0.000000        0.011400        0.000053
       539         -0.79353737        0.000071        0.000000        0.000000        0.000018        0.000053
       540         -0.79718983        0.023426        0.000000        0.000000        0.012794        0.010631
       541         -0.79720117        0.022581        0.000000        0.000000        0.011398        0.011183
       542         -0.79720117        0.022582        0.000000        0.000000        0.011400        0.011182
       543         -0.79353737        0.011160        0.000000        0.000000        0.000018        0.011142
       544         -0.79718983        0.301840        0.000000        0.000000        0.012794        0.289046
       545         -0.79720117        0.291190        0.000000        0.000000        0.011398        0.279792
       546         -0.79720117        0.291205        0.000000        0.000000        0.011400        0.279805
       547         -0.79720117        0.011420        0.000000        0.000000        0.011400        0.000019
       548         -0.79353737        0.000037        0.000000        0.000000        0.000018        0.000019
       549         -0.79718983        0.015684        0.000000        0.000000        0.012794        0.002890
       550         -0.79720117        0.014139        0.000000        0.000000        0.011398        0.002741
       551         -0.79720117        0.014141        0.000000        0.000000        0.011400        0.002741
       552         -0.79353737        0.002750        0.000000        0.000000        0.000018        0.002731
       553         -0.79718983        0.314535        0.000000        0.000000        0.012794        0.301741
       554         -0.79720117        0.303832        0.000000        0.000000        0.011398        0.292434
       555         -0.79720117        0.303847        0.000000        0.000000        0.011400        0.292447
       556         -0.79720117        0.013009        0.000000        0.000000        0.011400        0.001608
       557         -0.79353737        0.001621        0.000000        0.000000        0.000018        0.001602
       558         -0.79718983        0.214344        0.000000        0.000000        0.012794        0.201549
       559         -0.79720117        0.205071        0.000000        0.000000        0.011398        0.193673
       560         -0.79720117        0.205084        0.000000        0.000000        0.011400        0.193683
       561         -0.79720117        0.011441        0.000000        0.000000        0.011400        0.000040
       562         -0.79353737        0.000058        0.000000        0.000000        0.000018        0.000040
       563         -0.79718983        0.018806        0.000000        0.000000        0.012794        0.006012
       564         -0.79720117        0.017102        0.000000        0.000000        0.011398        0.005704
       565         -0.79720117        0.017104        0.000000        0.000000        0.011400        0.005704
       566         -0.79353737        0.005702        0.000000        0.000000        0.000018        0.005683
       567         -0.79718983        0.452139        0.000000        0.000000        0.012794        0.439345
       568         -0.79720117        0.445707        0.000000        0.000000        0.011398        0.434309
       569         -0.79720117        0.445716        0.000000        0.000000        0.011400        0.434316
       570         -0.79720117        0.013025        0.000000        0.000000        0.011400        0.001624
       571         -0.79353737        0.001637        0.000000        0.000000        0.000018        0.001618
       572         -0.79718983        0.215987        0.000000        0.000000        0.012794        0.203192
       573         -0.79720117        0.206674        0.000000        0.000000        0.011398        0.195276
       574         -0.79720117        0.206687        0.000000        0.000000        0.011400        0.195287
       575         -0.79720117        0.011443        0.000000        0.000000        0.011400        0.000043
       576         -0.79353737        0.000061        0.000000        0.000000        0.000018        0.000043
       577         -0.79718983        0.019200        0.000000        0.000000        0.012794        0.006406
       578         -0.79720117        0.017476        0.000000        0.000000        0.011398        0.006078
       579         -0.79720117        0.017478        0.000000        0.000000        0.011400        0.006078
       580         -0.79353737        0.006074        0.000000        0.000000        0.000018        0.006056
       581         -0.79718983        0.459393        0.000000        0.000000        0.012794        0.446598
       582         -0.79720117        0.453873        0.000000        0.000000        0.011398        0.442474
       583         -0.79720117        0.012462        0.000000        0.000000        0.011398        0.001063
       584         -0.79353742        0.001078        0.000000        0.000000        0.000018        0.001059
       585         -0.79718983        0.154478        0.000000        0.000000        0.012794        0.141684
       586         -0.79720117        0.146961        0.000000        0.000000        0.011398        0.135562
       587         -0.79720117        0.146971        0.000000        0.000000        0.011400        0.135571
       588         -0.79720117        0.011402        0.000000        0.000000        0.011400        0.000002
       589         -0.79353737        0.000020        0.000000        0.000000        0.000018        0.000002
       590         -0.79718983        0.013101        0.000000        0.000000        0.012794        0.000306
       591         -0.79720117        0.011689        0.000000        0.000000        0.011398        0.000290
       592         -0.79720117        0.011691        0.000000        0.000000        0.011400        0.000290
       593         -0.79353737        0.000308        0.000000        0.000000        0.000018        0.000289
       594         -0.79718983        0.054941        0.000000        0.000000        0.012794        0.042147
       595         -0.79720117        0.051470        0.000000        0.000000        0.011398        0.040071
       596         -0.79720117        0.051474        0.000000        0.000000        0.011400        0.040074
       597         -0.79720117        0.011438        0.000000        0.000000        0.011400        0.000038
       598         -0.79353737        0.000056        0.000000        0.000000        0.000018        0.000037
       599         -0.79718983        0.018391        0.000000        0.000000        0.012794        0.005597
       600         -0.79720117        0.016708        0.000000        0.000000        0.011398        0.005310
       601         -0.79720117        0.016710        0.000000        0.000000        0.011400        0.005310
       602         -0.79353737        0.005309        0.000000        0.000000        0.000018        0.005291
       603         -0.79718983        0.442381        0.000000        0.000000        0.012794        0.429587
       604         -0.79720117        0.435029        0.000000        0.000000        0.011398        0.423631
       605         -0.79720117        0.435040        0.000000        0.000000        0.011400        0.423640
       606         -0.79720117        0.011493        0.000000        0.000000        0.011400        0.000093
       607         -0.79353737        0.000111        0.000000        0.000000        0.000018        0.000093
       608         -0.79718983        0.026595        0.000000        0.000000        0.012794        0.013800
       609         -0.79720117        0.024497        0.000000        0.000000        0.011398        0.013099
       610         -0.79720117        0.024500        0.000000        0.000000        0.011400        0.013100
       611         -0.79720117        0.011401        0.000000        0.000000        0.011400        0.000001
       612         -0.79353737        0.000019        0.000000        0.000000        0.000018        0.000001
       613         -0.79718983        0.012874        0.000000        0.000000        0.012794        0.000079
       614         -0.79720117        0.011474        0.000000        0.000000        0.011398        0.000075
       615         -0.79720117        0.011476        0.000000        0.000000        0.011401        0.000075
       616         -0.79720117        0.011475        0.000000        0.000000        0.011400        0.000075
       617         -0.79353737        0.000093        0.000000        0.000000        0.000018        0.000075
       618         -0.79718983        0.023955        0.000000        0.000000        0.012794        0.011161
       619         -0.79720117        0.021990        0.000000        0.000000        0.011398        0.010592
       620         -0.79353742        0.010571        0.000000        0.000000        0.000018        0.010553
       621         -0.79718983        0.434059        0.000000        0.000000        0.012794        0.421264
       622         -0.79720117        0.438586        0.000000        0.000000        0.011398        0.427188
       623         -0.79720117        0.438580        0.000000        0.000000        0.011400        0.427180
       624         -0.79720117        0.012734        0.000000        0.000000        0.011400        0.001334
       625         -0.79353737        0.001348        0.000000        0.000000        0.000018        0.001329
       626         -0.79718983        0.234132        0.000000        0.000000        0.012794        0.221337
       627         -0.79720117        0.240980        0.000000        0.000000        0.011398        0.229582
       628         -0.79720117        0.240970        0.000000        0.000000        0.011400        0.229570
       629         -0.79720117        0.011552        0.000000        0.000000        0.011400        0.000151
[...]
       859         -0.79718983        0.201827        0.000000        0.000000        0.012794        0.189032
       860         -0.79720117        0.192873        0.000000        0.000000        0.011398        0.181474
       861         -0.79720117        0.192885        0.000000        0.000000        0.011400        0.181485
       862         -0.79720117        0.011424        0.000000        0.000000        0.011400        0.000024
       863         -0.79353737        0.000042        0.000000        0.000000        0.000018        0.000024
       864         -0.79718983        0.016393        0.000000        0.000000        0.012794        0.003599
       865         -0.79720117        0.014813        0.000000        0.000000        0.011398        0.003414
       866         -0.79720117        0.014815        0.000000        0.000000        0.011400        0.003414
       867         -0.79353737        0.003420        0.000000        0.000000        0.000018        0.003402
       868         -0.79718983        0.360168        0.000000        0.000000        0.012794        0.347374
       869         -0.79720117        0.349682        0.000000        0.000000        0.011398        0.338283
       870         -0.79720117        0.349696        0.000000        0.000000        0.011400        0.338296
       871         -0.79720117        0.433561        0.000000        0.000000        0.011400        0.422161
       872         -0.79720117        0.011464        0.000000        0.000000        0.011400        0.000064
       873         -0.79353737        0.000082        0.000000        0.000000        0.000018        0.000063
       874         -0.79718983        0.022272        0.000000        0.000000        0.012794        0.009478
       875         -0.79720117        0.020392        0.000000        0.000000        0.011398        0.008994
       876         -0.79353742        0.008979        0.000000        0.000000        0.000018        0.008961
       877         -0.79718983        0.461988        0.000000        0.000000        0.012794        0.449194
       878         -0.79720117        0.463543        0.000000        0.000000        0.011398        0.452144
       879         -0.79720117        0.463540        0.000000        0.000000        0.011401        0.452139
       880         -0.79720117        0.463541        0.000000        0.000000        0.011400        0.452141
       881         -0.79720117        0.012326        0.000000        0.000000        0.011400        0.000926
       882         -0.79353737        0.000941        0.000000        0.000000        0.000018        0.000922
       883         -0.79718983        0.176258        0.000000        0.000000        0.012794        0.163463
       884         -0.79720117        0.181685        0.000000        0.000000        0.011398        0.170286
       885         -0.79720117        0.011420        0.000000        0.000000        0.011398        0.000021
       886         -0.79353742        0.000039        0.000000        0.000000        0.000018        0.000021
       887         -0.79718983        0.017067        0.000000        0.000000        0.012794        0.004272
       888         -0.79720117        0.015894        0.000000        0.000000        0.011398        0.004496
       889         -0.79720117        0.015896        0.000000        0.000000        0.011400        0.004495
       890         -0.79353737        0.004497        0.000000        0.000000        0.000018        0.004479
       891         -0.79718983        0.459568        0.000000        0.000000        0.012794        0.446773
       892         -0.79720117        0.461515        0.000000        0.000000        0.011398        0.450116
       893         -0.79720117        0.461512        0.000000        0.000000        0.011400        0.450112
       894         -0.79720117        0.468937        0.000000        0.000000        0.011400        0.457537
       895         -0.79720117        0.017103        0.000000        0.000000        0.011400        0.005703
       896         -0.79353737        0.005700        0.000000        0.000000        0.000018        0.005682
       897         -0.79718983        0.452112        0.000000        0.000000        0.012794        0.439317
       898         -0.79720117        0.445676        0.000000        0.000000        0.011398        0.434278
       899         -0.79720117        0.445685        0.000000        0.000000        0.011400        0.434285
       900         -0.79720117        0.013010        0.000000        0.000000        0.011400        0.001610
       901         -0.79353737        0.001622        0.000000        0.000000        0.000018        0.001604
       902         -0.79718983        0.214494        0.000000        0.000000        0.012794        0.201700
       903         -0.79720117        0.205218        0.000000        0.000000        0.011398        0.193819
       904         -0.79720117        0.205231        0.000000        0.000000        0.011400        0.193830
       905         -0.79720117        0.011441        0.000000        0.000000        0.011400        0.000041
       906         -0.79353737        0.000059        0.000000        0.000000        0.000018        0.000040
       907         -0.79718983        0.018842        0.000000        0.000000        0.012794        0.006047
       908         -0.79720117        0.017136        0.000000        0.000000        0.011398        0.005737
       909         -0.79720117        0.017138        0.000000        0.000000        0.011400        0.005738
       910         -0.79353737        0.005735        0.000000        0.000000        0.000018        0.005717
       911         -0.79718983        0.452867        0.000000        0.000000        0.012794        0.440072
       912         -0.79720117        0.446515        0.000000        0.000000        0.011398        0.435116
       913         -0.79720117        0.446527        0.000000        0.000000        0.011401        0.435126
       914         -0.79720117        0.446524        0.000000        0.000000        0.011400        0.435124
       915         -0.79720117        0.013464        0.000000        0.000000        0.011400        0.002064
       916         -0.79353737        0.002075        0.000000        0.000000        0.000018        0.002057
       917         -0.79718983        0.258421        0.000000        0.000000        0.012794        0.245627
       918         -0.79720117        0.248254        0.000000        0.000000        0.011398        0.236855
       919         -0.79720117        0.011547        0.000000        0.000000        0.011398        0.000148
       920         -0.79353742        0.000166        0.000000        0.000000        0.000018        0.000148
       921         -0.79718983        0.034675        0.000000        0.000000        0.012794        0.021881
       922         -0.79720117        0.032177        0.000000        0.000000        0.011398        0.020778
       923         -0.79720117        0.032180        0.000000        0.000000        0.011400        0.020780
       924         -0.79720117        0.011404        0.000000        0.000000        0.011400        0.000003
       925         -0.79353737        0.000022        0.000000        0.000000        0.000018        0.000003
       926         -0.79718983        0.013303        0.000000        0.000000        0.012794        0.000509
       927         -0.79720117        0.011881        0.000000        0.000000        0.011398        0.000482
       928         -0.79720117        0.011883        0.000000        0.000000        0.011400        0.000483
       929         -0.79353737        0.000499        0.000000        0.000000        0.000018        0.000481
       930         -0.79718983        0.081350        0.000000        0.000000        0.012794        0.068555
       931         -0.79720117        0.076682        0.000000        0.000000        0.011398        0.065283
       932         -0.79720117        0.076688        0.000000        0.000000        0.011400        0.065288
       933         -0.79720117        0.011621        0.000000        0.000000        0.011400        0.000220
       934         -0.79353737        0.000238        0.000000        0.000000        0.000018        0.000220
       935         -0.79718983        0.045010        0.000000        0.000000        0.012794        0.032216
       936         -0.79720117        0.042010        0.000000        0.000000        0.011398        0.030611
       937         -0.79720117        0.042015        0.000000        0.000000        0.011401        0.030614
       938         -0.79720117        0.042014        0.000000        0.000000        0.011400        0.030614
       939         -0.79720117        0.011414        0.000000        0.000000        0.011400        0.000014
       940         -0.79353737        0.000032        0.000000        0.000000        0.000018        0.000014
       941         -0.79718983        0.014921        0.000000        0.000000        0.012794        0.002127
       942         -0.79720117        0.013416        0.000000        0.000000        0.011398        0.002017
       943         -0.79720117        0.013418        0.000000        0.000000        0.011400        0.002018
       944         -0.79353737        0.002028        0.000000        0.000000        0.000018        0.002010
       945         -0.79718983        0.254151        0.000000        0.000000        0.012794        0.241357
       946         -0.79720117        0.244054        0.000000        0.000000        0.011398        0.232655
       947         -0.79720117        0.244068        0.000000        0.000000        0.011400        0.232667
       948         -0.79720117        0.011538        0.000000        0.000000        0.011400        0.000138
       949         -0.79353737        0.000155        0.000000        0.000000        0.000018        0.000137
       950         -0.79718983        0.033112        0.000000        0.000000        0.012794        0.020318
       951         -0.79720117        0.030691        0.000000        0.000000        0.011398        0.019292
       952         -0.79720117        0.030694        0.000000        0.000000        0.011400        0.019294
       953         -0.79720117        0.011403        0.000000        0.000000        0.011400        0.000003
       954         -0.79353737        0.000021        0.000000        0.000000        0.000018        0.000003
       955         -0.79718983        0.013177        0.000000        0.000000        0.012794        0.000383
       956         -0.79720117        0.011762        0.000000        0.000000        0.011398        0.000363
       957         -0.79720117        0.011764        0.000000        0.000000        0.011400        0.000363
       958         -0.79353737        0.000380        0.000000        0.000000        0.000018        0.000362
       959         -0.79718983        0.065097        0.000000        0.000000        0.012794        0.052302
       960         -0.79720117        0.061155        0.000000        0.000000        0.011398        0.049757
       961         -0.79720117        0.061160        0.000000        0.000000        0.011400        0.049760
       962         -0.79720117        0.011482        0.000000        0.000000        0.011400        0.000082
       963         -0.79353737        0.000100        0.000000        0.000000        0.000018        0.000081
       964         -0.79718983        0.024935        0.000000        0.000000        0.012794        0.012140
       965         -0.79720117        0.022921        0.000000        0.000000        0.011398        0.011522
       966         -0.79720117        0.022923        0.000000        0.000000        0.011400        0.011523
       967         -0.79720117        0.022923        0.000000        0.000000        0.011400        0.011523
       968         -0.79720117        0.011401        0.000000        0.000000        0.011400        0.000000
       969         -0.79353737        0.000019        0.000000        0.000000        0.000018        0.000000
       970         -0.79718983        0.012839        0.000000        0.000000        0.012794        0.000044
       971         -0.79720117        0.011441        0.000000        0.000000        0.011398        0.000042
       972         -0.79720117        0.011443        0.000000        0.000000        0.011401        0.000042
       973         -0.79720117        0.011442        0.000000        0.000000        0.011400        0.000042
       974         -0.79353737        0.000060        0.000000        0.000000        0.000018        0.000042
       975         -0.79718983        0.019081        0.000000        0.000000        0.012794        0.006287
       976         -0.79720117        0.017363        0.000000        0.000000        0.011398        0.005965
       977         -0.79720117        0.017365        0.000000        0.000000        0.011400        0.005965
       978         -0.79720117        0.017365        0.000000        0.000000        0.011400        0.005965
       979         -0.79353737        0.005962        0.000000        0.000000        0.000018        0.005944
       980         -0.79718983        0.457403        0.000000        0.000000        0.012794        0.444608
       981         -0.79720117        0.451604        0.000000        0.000000        0.011398        0.440206
       982         -0.79720117        0.451613        0.000000        0.000000        0.011400        0.440212
       983         -0.79720117        0.022498        0.000000        0.000000        0.011400        0.011098
       984         -0.79353737        0.011076        0.000000        0.000000        0.000018        0.011058
       985         -0.79718983        0.422420        0.000000        0.000000        0.012794        0.409626
       986         -0.79720117        0.427683        0.000000        0.000000        0.011398        0.416284
       987         -0.79720117        0.427676        0.000000        0.000000        0.011400        0.416275
       988         -0.79720117        0.011538        0.000000        0.000000        0.011400        0.000138
       989         -0.79353737        0.000156        0.000000        0.000000        0.000018        0.000137
       990         -0.79718983        0.040179        0.000000        0.000000        0.012794        0.027385
       991         -0.79720117        0.040176        0.000000        0.000000        0.011398        0.028778
       992         -0.79720117        0.040176        0.000000        0.000000        0.011400        0.028776
       993         -0.79720117        0.011426        0.000000        0.000000        0.011400        0.000026
       994         -0.79353737        0.000044        0.000000        0.000000        0.000018        0.000025
       995         -0.79718983        0.017953        0.000000        0.000000        0.012794        0.005159
       996         -0.79720117        0.016827        0.000000        0.000000        0.011398        0.005428
       997         -0.79353742        0.005427        0.000000        0.000000        0.000018        0.005409
       998         -0.79718983        0.471112        0.000000        0.000000        0.012794        0.458317
       999         -0.79720117        0.469815        0.000000        0.000000        0.011398        0.458417
      1000         -0.79720117        0.469817        0.000000        0.000000        0.011400        0.458417

 Failed to Converge

 WFN1                     :
 --------------------------
 Total WFN1 energy =          -0.7972011693
 1-Electron energy =          -0.1887806591
 2-Electron energy =          -0.0000000000
 Entropy energy    =          -0.6084205103
 Nuclear energy    =           0.0000000000

 conventional Hartree-Fock:
 --------------------------
 Total SCF energy  =          -0.6977098068
 2-Electron energy =           0.0994913626


      Natural orbital occupation numbers

          Alpha     Beta
         ------   ------
     1   0.6774   0.0000
     2   0.3226   0.0000

                     WFN1 Final Correlation function energies
                     ----------------------------------------

              alpha       beta  
            --------    --------
       1      0.3932     -0.8333
       2      0.4505     -0.8286

                  WFN1 Final alpha Correlation Function Analysis
                  ----------------------------------------------


 global array: Ca[1:2,1:2],  handle: -988 

            1           2  
       ----------- -----------
   1       0.82303     0.56800
   2      -0.56800     0.82303

                   WFN1 Final beta Correlation Function Analysis
                   ---------------------------------------------


 global array: Cb[1:2,1:2],  handle: -987 

            1           2  
       ----------- -----------
   1       0.70885     0.70536
   2      -0.70536     0.70885

                     WFN1 Final Alpha Natural Orbital Analysis
                     -----------------------------------------

 Vector    1  Occ=6.773742D-01  E= 3.931581D-01
              MO Center=  0.0D+00,  0.0D+00,  0.0D+00, r^2= 8.0D-01
   Bfn.  Coefficient  Atom+Function         Bfn.  Coefficient  Atom+Function  
  ----- ------------  ---------------      ----- ------------  ---------------
     2      0.665449  1 H  s                  1      0.427430  1 H  s          

 Vector    2  Occ=3.226258D-01  E= 4.504507D-01
              MO Center=  0.0D+00,  0.0D+00,  0.0D+00, r^2= 1.2D+00
   Bfn.  Coefficient  Atom+Function         Bfn.  Coefficient  Atom+Function  
  ----- ------------  ---------------      ----- ------------  ---------------
     1      1.257798  1 H  s                  2     -1.149752  1 H  s          


                     WFN1 Final Beta Natural Orbital Analysis
                     ----------------------------------------

 Vector    1  Occ=0.000000D+00  E=-8.333146D-01
              MO Center=  0.0D+00,  0.0D+00,  0.0D+00, r^2= 8.0D-01
   Bfn.  Coefficient  Atom+Function         Bfn.  Coefficient  Atom+Function  
  ----- ------------  ---------------      ----- ------------  ---------------
     2      0.665449  1 H  s                  1      0.427430  1 H  s          

 Vector    2  Occ=0.000000D+00  E=-8.285985D-01
              MO Center=  0.0D+00,  0.0D+00,  0.0D+00, r^2= 1.2D+00
   Bfn.  Coefficient  Atom+Function         Bfn.  Coefficient  Atom+Function  
  ----- ------------  ---------------      ----- ------------  ---------------
     1      1.257798  1 H  s                  2     -1.149752  1 H  s          

 ------------------------------------------------------------------------
 wfn1 energy failed                                                                                 0
 ------------------------------------------------------------------------
 ------------------------------------------------------------------------
  current input line : 
    25: task wfn1 energy
 ------------------------------------------------------------------------
 ------------------------------------------------------------------------
 This type of error is most commonly associated with calculations not reaching convergence criteria
 ------------------------------------------------------------------------
 For more information see the NWChem manual at http://www.nwchem-sw.org/index.php/NWChem_Documentation


 For further details see manual section:                                                                                                                                                                                                                                                                
