 argument  1 = wfn1_h.nw



============================== echo of input deck ==============================
echo
start wfn1_h_dat

geometry
  h 0 0 0
end
basis
  * library 6-31g**
end

set wfn1:print_error T
set wfn1:nopen  1
set wfn1:maxit  50
set wfn1:t_bath 0.0

task wfn1 energy

set wfn1:conv_tol 1.0d-8
set wfn1:print_error T
set wfn1:nopen  1
set wfn1:maxit  1000
set wfn1:t_bath 0.60

task wfn1 energy
================================================================================


                                         
                                         


              Northwest Computational Chemistry Package (NWChem) 6.8
              ------------------------------------------------------


                    Environmental Molecular Sciences Laboratory
                       Pacific Northwest National Laboratory
                                Richland, WA 99352

                              Copyright (c) 1994-2015
                       Pacific Northwest National Laboratory
                            Battelle Memorial Institute

             NWChem is an open-source computational chemistry package
                        distributed under the terms of the
                      Educational Community License (ECL) 2.0
             A copy of the license is included with this distribution
                              in the LICENSE.TXT file

                                  ACKNOWLEDGMENT
                                  --------------

            This software and its documentation were developed at the
            EMSL at Pacific Northwest National Laboratory, a multiprogram
            national laboratory, operated for the U.S. Department of Energy
            by Battelle under Contract Number DE-AC05-76RL01830. Support
            for this work was provided by the Department of Energy Office
            of Biological and Environmental Research, Office of Basic
            Energy Sciences, and the Office of Advanced Scientific Computing.


           Job information
           ---------------

    hostname        = erato
    program         = ../../../bin/LINUX64/nwchem
    date            = Sun May  6 20:46:21 2018

    compiled        = Sun_May_06_19:29:18_2018
    source          = /home/hvandam/nwchem-1-wfn1
    nwchem branch   = Development
    nwchem revision = nwchem_on_git-51-gcccac83fc2a4226c5c513281d68ab773edcb0a0d
    ga revision     = nwchem_on_git-43-g1da910a
    use scalapack   = F
    input           = wfn1_h.nw
    prefix          = wfn1_h_dat.
    data base       = ./wfn1_h_dat.db
    status          = startup
    nproc           =        1
    time left       =     -1s



           Memory information
           ------------------

    heap     =   13107198 doubles =    100.0 Mbytes
    stack    =   13107195 doubles =    100.0 Mbytes
    global   =   26214400 doubles =    200.0 Mbytes (distinct from heap & stack)
    total    =   52428793 doubles =    400.0 Mbytes
    verify   = yes
    hardfail = no 


           Directory information
           ---------------------

  0 permanent = .
  0 scratch   = .




                                NWChem Input Module
                                -------------------



 Scaling coordinates for geometry "geometry" by  1.889725989
 (inverse scale =  0.529177249)



                             Geometry "geometry" -> ""
                             -------------------------

 Output coordinates in angstroms (scale by  1.889725989 to convert to a.u.)

  No.       Tag          Charge          X              Y              Z
 ---- ---------------- ---------- -------------- -------------- --------------
    1 h                    1.0000     0.00000000     0.00000000     0.00000000

      Atomic Mass 
      ----------- 

      h                  1.007825


 Effective nuclear repulsion energy (a.u.)       0.0000000000

            Nuclear Dipole moment (a.u.) 
            ----------------------------
        X                 Y               Z
 ---------------- ---------------- ----------------
     0.0000000000     0.0000000000     0.0000000000


            XYZ format geometry
            -------------------
     1
 geometry
 h                     0.00000000     0.00000000     0.00000000



 Summary of "ao basis" -> "" (cartesian)
 ------------------------------------------------------------------------------
       Tag                 Description            Shells   Functions and Types
 ---------------- ------------------------------  ------  ---------------------
 *                          6-31g**                   on all atoms 



                                NWChem WFN1 Module
                                ------------------


                      Basis "ao basis" -> "ao basis" (cartesian)
                      -----
  h (Hydrogen)
  ------------
            Exponent  Coefficients 
       -------------- ---------------------------------------------------------
  1 S  1.87311370E+01  0.033495
  1 S  2.82539370E+00  0.234727
  1 S  6.40121700E-01  0.813757

  2 S  1.61277800E-01  1.000000

  3 P  1.10000000E+00  1.000000



 Summary of "ao basis" -> "ao basis" (cartesian)
 ------------------------------------------------------------------------------
       Tag                 Description            Shells   Functions and Types
 ---------------- ------------------------------  ------  ---------------------
 h                          6-31g**                  3        5   2s1p



      Superposition of Atomic Density Guess
      -------------------------------------

 Sum of atomic energies:          -0.49823254

      Non-variational initial energy
      ------------------------------

 Total energy =      -0.498233
 1-e energy   =      -0.498233
 2-e energy   =       0.000000
 HOMO         =      -0.498233
 LUMO         =       0.460935

 iteration              energy           error          err Na          err Nb          err Ca          err Cb
 ---------              ------           -----          ------          ------          ------          ------
         0         -0.49823291        0.000000        0.000000        0.000000        0.000000        0.000000

 Reached Convergence

 WFN1                     :
 --------------------------
 Total WFN1 energy =          -0.4982329107
 1-Electron energy =          -0.4982329107
 2-Electron energy =           0.0000000000
 Entropy energy    =           0.0000000000
 Nuclear energy    =           0.0000000000

 conventional Hartree-Fock:
 --------------------------
 Total SCF energy  =          -0.4982329107
 2-Electron energy =           0.0000000000

                WFN1 Final Natural orbital energies and occupations
                ---------------------------------------------------

              Alpha       Beta            Alpha       Beta  
            --------    --------        --------    --------
       1     -0.4982      0.0000          1.0000      0.0000
       2      0.0000      0.0000          0.0000      0.0000
       3      0.0000      0.0000          0.0000      0.0000
       4      0.0000      0.0000          0.0000      0.0000
       5      0.0000      0.0000          0.0000      0.0000

             WFN1 Final Correlation function energies and occupations
             --------------------------------------------------------

              Alpha       Beta            Alpha       Beta  
            --------    --------        --------    --------
       1     -0.4982      0.1305          1.0000      0.0000
       2      0.9162      1.0726          0.0000      0.0000
       3      2.2309      2.3659          0.0000      0.0000
       4      2.2309      2.3659          0.0000      0.0000
       5      2.2309      2.3659          0.0000      0.0000

                WFN1 Final alpha-alpha 2-matrix occupation numbers
                --------------------------------------------------


 global array: g_momo1[1:5,1:5],  handle: -994 

            1           2           3           4           5  
       ----------- ----------- ----------- ----------- -----------
   1       0.00000     0.00000     0.00000     0.00000     0.00000
   2       0.00000     0.00000     0.00000     0.00000     0.00000
   3       0.00000     0.00000     0.00000     0.00000     0.00000
   4       0.00000     0.00000     0.00000     0.00000     0.00000
   5       0.00000     0.00000     0.00000     0.00000     0.00000

                 WFN1 Final beta-beta 2-matrix occupation numbers
                 ------------------------------------------------


 global array: g_momo2[1:5,1:5],  handle: -993 

            1           2           3           4           5  
       ----------- ----------- ----------- ----------- -----------
   1       0.00000     0.00000     0.00000     0.00000     0.00000
   2       0.00000     0.00000     0.00000     0.00000     0.00000
   3       0.00000     0.00000     0.00000     0.00000     0.00000
   4       0.00000     0.00000     0.00000     0.00000     0.00000
   5       0.00000     0.00000     0.00000     0.00000     0.00000

                  WFN1 Final alpha Correlation Function Analysis
                  ----------------------------------------------


 global array: Ca[1:5,1:5],  handle: -988 

            1           2           3           4           5  
       ----------- ----------- ----------- ----------- -----------
   1       1.00000     0.00000     0.00000     0.00000     0.00000
   2       0.00000     1.00000     0.00000     0.00000     0.00000
   3       0.00000     0.00000     1.00000     0.00000     0.00000
   4       0.00000     0.00000     0.00000     1.00000     0.00000
   5       0.00000     0.00000     0.00000     0.00000     1.00000

                   WFN1 Final beta Correlation Function Analysis
                   ---------------------------------------------


 global array: Cb[1:5,1:5],  handle: -987 

            1           2           3           4           5  
       ----------- ----------- ----------- ----------- -----------
   1       1.00000     0.00000     0.00000     0.00000     0.00000
   2       0.00000     1.00000     0.00000     0.00000     0.00000
   3       0.00000     0.00000     1.00000     0.00000     0.00000
   4       0.00000     0.00000     0.00000     1.00000     0.00000
   5       0.00000     0.00000     0.00000     0.00000     1.00000

                     WFN1 Final Alpha Natural Orbital Analysis
                     -----------------------------------------

 Vector    1  Occ=1.000000D+00  E=-4.982329D-01
              MO Center=  0.0D+00,  0.0D+00,  0.0D+00, r^2= 8.0D-01
   Bfn.  Coefficient  Atom+Function         Bfn.  Coefficient  Atom+Function  
  ----- ------------  ---------------      ----- ------------  ---------------
     2      0.665449  1 H  s                  1      0.427430  1 H  s          

 Vector    2  Occ=0.000000D+00  E= 0.000000D+00
              MO Center=  0.0D+00,  0.0D+00,  0.0D+00, r^2= 1.2D+00
   Bfn.  Coefficient  Atom+Function         Bfn.  Coefficient  Atom+Function  
  ----- ------------  ---------------      ----- ------------  ---------------
     1      1.257798  1 H  s                  2     -1.149752  1 H  s          

 Vector    3  Occ=0.000000D+00  E= 0.000000D+00
              MO Center=  0.0D+00,  0.0D+00,  0.0D+00, r^2= 3.2D-01
   Bfn.  Coefficient  Atom+Function         Bfn.  Coefficient  Atom+Function  
  ----- ------------  ---------------      ----- ------------  ---------------
     5      1.000000  1 H  pz         

 Vector    4  Occ=0.000000D+00  E= 0.000000D+00
              MO Center=  0.0D+00,  0.0D+00,  0.0D+00, r^2= 3.2D-01
   Bfn.  Coefficient  Atom+Function         Bfn.  Coefficient  Atom+Function  
  ----- ------------  ---------------      ----- ------------  ---------------
     4      1.000000  1 H  py         

 Vector    5  Occ=0.000000D+00  E= 0.000000D+00
              MO Center=  0.0D+00,  0.0D+00,  0.0D+00, r^2= 3.2D-01
   Bfn.  Coefficient  Atom+Function         Bfn.  Coefficient  Atom+Function  
  ----- ------------  ---------------      ----- ------------  ---------------
     3      1.000000  1 H  px         


                     WFN1 Final Beta Natural Orbital Analysis
                     ----------------------------------------

 Vector    1  Occ=0.000000D+00  E= 0.000000D+00
              MO Center=  0.0D+00,  0.0D+00,  0.0D+00, r^2= 8.0D-01
   Bfn.  Coefficient  Atom+Function         Bfn.  Coefficient  Atom+Function  
  ----- ------------  ---------------      ----- ------------  ---------------
     2      0.665449  1 H  s                  1      0.427430  1 H  s          

 Vector    2  Occ=0.000000D+00  E= 0.000000D+00
              MO Center=  0.0D+00,  0.0D+00,  0.0D+00, r^2= 1.2D+00
   Bfn.  Coefficient  Atom+Function         Bfn.  Coefficient  Atom+Function  
  ----- ------------  ---------------      ----- ------------  ---------------
     1      1.257798  1 H  s                  2     -1.149752  1 H  s          

 Vector    3  Occ=0.000000D+00  E= 0.000000D+00
              MO Center=  0.0D+00,  0.0D+00,  0.0D+00, r^2= 3.2D-01
   Bfn.  Coefficient  Atom+Function         Bfn.  Coefficient  Atom+Function  
  ----- ------------  ---------------      ----- ------------  ---------------
     5      1.000000  1 H  pz         

 Vector    4  Occ=0.000000D+00  E= 0.000000D+00
              MO Center=  0.0D+00,  0.0D+00,  0.0D+00, r^2= 3.2D-01
   Bfn.  Coefficient  Atom+Function         Bfn.  Coefficient  Atom+Function  
  ----- ------------  ---------------      ----- ------------  ---------------
     4      1.000000  1 H  py         

 Vector    5  Occ=0.000000D+00  E= 0.000000D+00
              MO Center=  0.0D+00,  0.0D+00,  0.0D+00, r^2= 3.2D-01
   Bfn.  Coefficient  Atom+Function         Bfn.  Coefficient  Atom+Function  
  ----- ------------  ---------------      ----- ------------  ---------------
     3      1.000000  1 H  px         


 Task  times  cpu:        0.0s     wall:        0.0s


                                NWChem Input Module
                                -------------------



                                NWChem WFN1 Module
                                ------------------



      Superposition of Atomic Density Guess
      -------------------------------------

 Sum of atomic energies:          -0.49823254

      Non-variational initial energy
      ------------------------------

 Total energy =      -0.498233
 1-e energy   =      -0.498233
 2-e energy   =       0.000000
 HOMO         =      -0.498233
 LUMO         =       0.460935

 iteration              energy           error          err Na          err Nb          err Ca          err Cb
 ---------              ------           -----          ------          ------          ------          ------
         1         -0.91876627        0.409260        0.000000        0.000000        0.019030        0.390230
         2         -0.92066671        0.017104        0.000000        0.000000        0.006254        0.010849
         3         -0.92138629        0.006954        0.000000        0.000000        0.005052        0.001902
         4         -0.92180999        0.002433        0.000000        0.000000        0.002274        0.000160
         5         -0.92203301        0.001956        0.000000        0.000000        0.001929        0.000027
         6         -0.92217963        0.001009        0.000000        0.000000        0.001006        0.000003
         7         -0.92226890        0.000869        0.000000        0.000000        0.000868        0.000001
         8         -0.92233119        0.000494        0.000000        0.000000        0.000494        0.000000
         9         -0.92237233        0.000429        0.000000        0.000000        0.000429        0.000000
        10         -0.92240212        0.000259        0.000000        0.000000        0.000259        0.000000
        11         -0.92242286        0.000226        0.000000        0.000000        0.000226        0.000000
        12         -0.92243826        0.000142        0.000000        0.000000        0.000142        0.000000
        13         -0.92244937        0.000124        0.000000        0.000000        0.000124        0.000000
        14         -0.92245777        0.000081        0.000000        0.000000        0.000081        0.000000
        15         -0.92246399        0.000070        0.000000        0.000000        0.000070        0.000000
        16         -0.92246875        0.000047        0.000000        0.000000        0.000047        0.000000
        17         -0.92247235        0.000041        0.000000        0.000000        0.000041        0.000000
        18         -0.92247513        0.000028        0.000000        0.000000        0.000028        0.000000
        19         -0.92247726        0.000024        0.000000        0.000000        0.000024        0.000000
        20         -0.92247892        0.000017        0.000000        0.000000        0.000017        0.000000
        21         -0.92248021        0.000015        0.000000        0.000000        0.000015        0.000000
        22         -0.92248122        0.000010        0.000000        0.000000        0.000010        0.000000
        23         -0.92248201        0.000009        0.000000        0.000000        0.000009        0.000000
        24         -0.92248264        0.000007        0.000000        0.000000        0.000007        0.000000
        25         -0.92248313        0.000006        0.000000        0.000000        0.000006        0.000000
        26         -0.92248352        0.000004        0.000000        0.000000        0.000004        0.000000
        27         -0.92248383        0.000004        0.000000        0.000000        0.000004        0.000000
        28         -0.92248415        0.000003        0.000000        0.000000        0.000003        0.000000
        29         -0.92248436        0.000002        0.000000        0.000000        0.000002        0.000000
        30         -0.92248449        0.000002        0.000000        0.000000        0.000002        0.000000
        31         -0.92248459        0.000002        0.000000        0.000000        0.000002        0.000000
        32         -0.92248467        0.000001        0.000000        0.000000        0.000001        0.000000
        33         -0.92248474        0.000001        0.000000        0.000000        0.000001        0.000000
        34         -0.92248480        0.000001        0.000000        0.000000        0.000001        0.000000
        35         -0.92248485        0.000001        0.000000        0.000000        0.000001        0.000000
        36         -0.92248490        0.000001        0.000000        0.000000        0.000001        0.000000
        37         -0.92248494        0.000001        0.000000        0.000000        0.000001        0.000000
        38         -0.92248498        0.000000        0.000000        0.000000        0.000000        0.000000
        39         -0.92248501        0.000000        0.000000        0.000000        0.000000        0.000000
        40         -0.92248504        0.000000        0.000000        0.000000        0.000000        0.000000
        41         -0.92248507        0.000000        0.000000        0.000000        0.000000        0.000000
        42         -0.92248508        0.000000        0.000000        0.000000        0.000000        0.000000
        43         -0.92248509        0.000000        0.000000        0.000000        0.000000        0.000000
        44         -0.92248510        0.000000        0.000000        0.000000        0.000000        0.000000
        45         -0.92248511        0.000000        0.000000        0.000000        0.000000        0.000000
        46         -0.92248512        0.000000        0.000000        0.000000        0.000000        0.000000
        47         -0.92248513        0.000000        0.000000        0.000000        0.000000        0.000000
        48         -0.92248513        0.000000        0.000000        0.000000        0.000000        0.000000
        49         -0.92248513        0.000000        0.000000        0.000000        0.000000        0.000000
        50         -0.92248514        0.000000        0.000000        0.000000        0.000000        0.000000
        51         -0.92248514        0.000000        0.000000        0.000000        0.000000        0.000000
        52         -0.92248515        0.000000        0.000000        0.000000        0.000000        0.000000
        53         -0.92248515        0.000000        0.000000        0.000000        0.000000        0.000000
        54         -0.92248515        0.000000        0.000000        0.000000        0.000000        0.000000
        55         -0.92248515        0.000000        0.000000        0.000000        0.000000        0.000000
        56         -0.92248515        0.000000        0.000000        0.000000        0.000000        0.000000
        57         -0.92248516        0.000000        0.000000        0.000000        0.000000        0.000000
        58         -0.92248516        0.000000        0.000000        0.000000        0.000000        0.000000
        59         -0.92248516        0.000000        0.000000        0.000000        0.000000        0.000000
        60         -0.92248516        0.000000        0.000000        0.000000        0.000000        0.000000
        61         -0.92248516        0.000000        0.000000        0.000000        0.000000        0.000000
        62         -0.92248516        0.000000        0.000000        0.000000        0.000000        0.000000
        63         -0.92248516        0.000000        0.000000        0.000000        0.000000        0.000000
        64         -0.92248516        0.000000        0.000000        0.000000        0.000000        0.000000
        65         -0.92248516        0.000000        0.000000        0.000000        0.000000        0.000000
        66         -0.92248516        0.000000        0.000000        0.000000        0.000000        0.000000
        67         -0.92248516        0.000000        0.000000        0.000000        0.000000        0.000000
        68         -0.92248517        0.000000        0.000000        0.000000        0.000000        0.000000
        69         -0.92248517        0.000000        0.000000        0.000000        0.000000        0.000000
        70         -0.92248517        0.000000        0.000000        0.000000        0.000000        0.000000
        71         -0.92248517        0.000000        0.000000        0.000000        0.000000        0.000000
        72         -0.92248517        0.000000        0.000000        0.000000        0.000000        0.000000
        73         -0.92248517        0.000000        0.000000        0.000000        0.000000        0.000000
        74         -0.92248517        0.000000        0.000000        0.000000        0.000000        0.000000
        75         -0.92248517        0.000000        0.000000        0.000000        0.000000        0.000000
        76         -0.92248517        0.000000        0.000000        0.000000        0.000000        0.000000
        77         -0.92248517        0.000000        0.000000        0.000000        0.000000        0.000000
        78         -0.92248517        0.000000        0.000000        0.000000        0.000000        0.000000
        79         -0.92248517        0.000000        0.000000        0.000000        0.000000        0.000000
        80         -0.92248517        0.000000        0.000000        0.000000        0.000000        0.000000
        81         -0.92248517        0.000000        0.000000        0.000000        0.000000        0.000000
        82         -0.92248517        0.000000        0.000000        0.000000        0.000000        0.000000
        83         -0.92248517        0.000000        0.000000        0.000000        0.000000        0.000000
        84         -0.92248517        0.000000        0.000000        0.000000        0.000000        0.000000
        85         -0.92248517        0.000000        0.000000        0.000000        0.000000        0.000000
        86         -0.92248517        0.000000        0.000000        0.000000        0.000000        0.000000
        87         -0.92248517        0.000000        0.000000        0.000000        0.000000        0.000000
        88         -0.92248517        0.000000        0.000000        0.000000        0.000000        0.000000

 Reached Convergence

 WFN1                     :
 --------------------------
 Total WFN1 energy =          -0.9224851708
 1-Electron energy =          -0.1221727365
 2-Electron energy =           0.0000000000
 Entropy energy    =          -0.8003124343
 Nuclear energy    =           0.0000000000

 conventional Hartree-Fock:
 --------------------------
 Total SCF energy  =          -0.8098422550
 2-Electron energy =           0.1126429158

                WFN1 Final Natural orbital energies and occupations
                ---------------------------------------------------

              Alpha       Beta            Alpha       Beta  
            --------    --------        --------    --------
       1     -0.3171      0.0000          0.6365      0.0000
       2      0.1568      0.0000          0.3402      0.0000
       3      0.0127      0.0000          0.0078      0.0000
       4      0.0127      0.0000          0.0078      0.0000
       5      0.0127      0.0000          0.0078      0.0000

             WFN1 Final Correlation function energies and occupations
             --------------------------------------------------------

              Alpha       Beta            Alpha       Beta  
            --------    --------        --------    --------
       1     -0.0568     -1.5946          1.0000      0.0000
       2      0.4023     -0.6365          0.0000      0.0000
       3      0.5542      0.6375          0.0000      0.0000
       4      0.5583      0.6375          0.0000      0.0000
       5      0.5583      0.6375          0.0000      0.0000

                WFN1 Final alpha-alpha 2-matrix occupation numbers
                --------------------------------------------------


 global array: g_momo1[1:5,1:5],  handle: -994 

            1           2           3           4           5  
       ----------- ----------- ----------- ----------- -----------
   1       0.00000    -0.00000     0.00000     0.00000     0.00000
   2      -0.00000     0.00000    -0.00000     0.00000     0.00000
   3       0.00000    -0.00000     0.00000     0.00000    -0.00000
   4       0.00000     0.00000     0.00000     0.00000    -0.00000
   5       0.00000     0.00000    -0.00000    -0.00000     0.00000

                 WFN1 Final beta-beta 2-matrix occupation numbers
                 ------------------------------------------------


 global array: g_momo2[1:5,1:5],  handle: -993 

            1           2           3           4           5  
       ----------- ----------- ----------- ----------- -----------
   1       0.00000     0.00000     0.00000     0.00000     0.00000
   2       0.00000     0.00000     0.00000     0.00000     0.00000
   3       0.00000     0.00000     0.00000     0.00000     0.00000
   4       0.00000     0.00000     0.00000     0.00000     0.00000
   5       0.00000     0.00000     0.00000     0.00000     0.00000

                  WFN1 Final alpha Correlation Function Analysis
                  ----------------------------------------------


 global array: Ca[1:5,1:5],  handle: -988 

            1           2           3           4           5  
       ----------- ----------- ----------- ----------- -----------
   1       0.79780    -0.59249    -0.11167     0.00059    -0.00019
   2       0.58325     0.80534    -0.10607     0.00056    -0.00019
   3       0.08821     0.01126     0.57171     0.45191     0.67898
   4       0.08820     0.01126     0.56605    -0.81765     0.05594
   5       0.08820     0.01126     0.57360     0.35668    -0.73202

                   WFN1 Final beta Correlation Function Analysis
                   ---------------------------------------------


 global array: Cb[1:5,1:5],  handle: -987 

            1           2           3           4           5  
       ----------- ----------- ----------- ----------- -----------
   1       1.00000    -0.00000     0.00000     0.00000    -0.00000
   2       0.00000     1.00000     0.00000     0.00000    -0.00000
   3      -0.00000    -0.00000     0.41026     0.57512     0.70776
   4       0.00000     0.00000    -0.81564     0.57855     0.00266
   5      -0.00000    -0.00000     0.40794     0.57837    -0.70645

                     WFN1 Final Alpha Natural Orbital Analysis
                     -----------------------------------------

 Vector    1  Occ=6.364828D-01  E=-3.171167D-01
              MO Center=  0.0D+00,  0.0D+00,  0.0D+00, r^2= 8.0D-01
   Bfn.  Coefficient  Atom+Function         Bfn.  Coefficient  Atom+Function  
  ----- ------------  ---------------      ----- ------------  ---------------
     2      0.665449  1 H  s                  1      0.427430  1 H  s          

 Vector    2  Occ=3.401759D-01  E= 1.567989D-01
              MO Center=  0.0D+00,  0.0D+00,  0.0D+00, r^2= 1.2D+00
   Bfn.  Coefficient  Atom+Function         Bfn.  Coefficient  Atom+Function  
  ----- ------------  ---------------      ----- ------------  ---------------
     1      1.257798  1 H  s                  2     -1.149752  1 H  s          

 Vector    3  Occ=7.781840D-03  E= 1.271731D-02
              MO Center=  0.0D+00,  0.0D+00,  0.0D+00, r^2= 3.2D-01
   Bfn.  Coefficient  Atom+Function         Bfn.  Coefficient  Atom+Function  
  ----- ------------  ---------------      ----- ------------  ---------------
     5      1.000000  1 H  pz         

 Vector    4  Occ=7.779664D-03  E= 1.271375D-02
              MO Center=  0.0D+00,  0.0D+00,  0.0D+00, r^2= 3.2D-01
   Bfn.  Coefficient  Atom+Function         Bfn.  Coefficient  Atom+Function  
  ----- ------------  ---------------      ----- ------------  ---------------
     4      1.000000  1 H  py         

 Vector    5  Occ=7.779815D-03  E= 1.271400D-02
              MO Center=  0.0D+00,  0.0D+00,  0.0D+00, r^2= 3.2D-01
   Bfn.  Coefficient  Atom+Function         Bfn.  Coefficient  Atom+Function  
  ----- ------------  ---------------      ----- ------------  ---------------
     3      1.000000  1 H  px         


                     WFN1 Final Beta Natural Orbital Analysis
                     ----------------------------------------

 Vector    1  Occ=0.000000D+00  E= 0.000000D+00
              MO Center=  0.0D+00,  0.0D+00,  0.0D+00, r^2= 8.0D-01
   Bfn.  Coefficient  Atom+Function         Bfn.  Coefficient  Atom+Function  
  ----- ------------  ---------------      ----- ------------  ---------------
     2      0.665449  1 H  s                  1      0.427430  1 H  s          

 Vector    2  Occ=0.000000D+00  E= 0.000000D+00
              MO Center=  0.0D+00,  0.0D+00,  0.0D+00, r^2= 1.2D+00
   Bfn.  Coefficient  Atom+Function         Bfn.  Coefficient  Atom+Function  
  ----- ------------  ---------------      ----- ------------  ---------------
     1      1.257798  1 H  s                  2     -1.149752  1 H  s          

 Vector    3  Occ=0.000000D+00  E= 0.000000D+00
              MO Center=  0.0D+00,  0.0D+00,  0.0D+00, r^2= 3.2D-01
   Bfn.  Coefficient  Atom+Function         Bfn.  Coefficient  Atom+Function  
  ----- ------------  ---------------      ----- ------------  ---------------
     5      1.000000  1 H  pz         

 Vector    4  Occ=0.000000D+00  E= 0.000000D+00
              MO Center=  0.0D+00,  0.0D+00,  0.0D+00, r^2= 3.2D-01
   Bfn.  Coefficient  Atom+Function         Bfn.  Coefficient  Atom+Function  
  ----- ------------  ---------------      ----- ------------  ---------------
     4      1.000000  1 H  py         

 Vector    5  Occ=0.000000D+00  E= 0.000000D+00
              MO Center=  0.0D+00,  0.0D+00,  0.0D+00, r^2= 3.2D-01
   Bfn.  Coefficient  Atom+Function         Bfn.  Coefficient  Atom+Function  
  ----- ------------  ---------------      ----- ------------  ---------------
     3      1.000000  1 H  px         


 Task  times  cpu:        1.3s     wall:        1.7s


                                NWChem Input Module
                                -------------------


 Summary of allocated global arrays
-----------------------------------
  No active global arrays



                         GA Statistics for process    0
                         ------------------------------

       create   destroy   get      put      acc     scatter   gather  read&inc
calls:   88       88     4.18e+05 9170     2.16e+05    0        0        4     
number of processes/call 1.00e+00 1.00e+00 1.00e+00 0.00e+00 0.00e+00
bytes total:             6.88e+07 1.76e+06 4.32e+07 0.00e+00 0.00e+00 3.20e+01
bytes remote:            0.00e+00 0.00e+00 0.00e+00 0.00e+00 0.00e+00 0.00e+00
Max memory consumed for GA by this process: 6800 bytes

MA_summarize_allocated_blocks: starting scan ...
MA_summarize_allocated_blocks: scan completed: 0 heap blocks, 0 stack blocks
MA usage statistics:

	allocation statistics:
					      heap	     stack
					      ----	     -----
	current number of blocks	         0	         0
	maximum number of blocks	        16	         5
	current total bytes		         0	         0
	maximum total bytes		     80120	  22508664
	maximum total K-bytes		        81	     22509
	maximum total M-bytes		         1	        23


                                     CITATION
                                     --------
                Please cite the following reference when publishing
                           results obtained with NWChem:

                 M. Valiev, E.J. Bylaska, N. Govind, K. Kowalski,
              T.P. Straatsma, H.J.J. van Dam, D. Wang, J. Nieplocha,
                        E. Apra, T.L. Windus, W.A. de Jong
                 "NWChem: a comprehensive and scalable open-source
                  solution for large scale molecular simulations"
                      Comput. Phys. Commun. 181, 1477 (2010)
                           doi:10.1016/j.cpc.2010.04.018

                                      AUTHORS
                                      -------
          E. Apra, E. J. Bylaska, W. A. de Jong, N. Govind, K. Kowalski,
       T. P. Straatsma, M. Valiev, H. J. J. van Dam, D. Wang, T. L. Windus,
        J. Hammond, J. Autschbach, K. Bhaskaran-Nair, J. Brabec, K. Lopata,
    S. A. Fischer, S. Krishnamoorthy, M. Jacquelin, W. Ma, M. Klemm, O. Villa,
      Y. Chen, V. Anisimov, F. Aquino, S. Hirata, M. T. Hackler, V. Konjkov,
      T. Risthaus, M. Malagoli, A. Marenich, A. Otero-de-la-Roza, J. Mullin,
        P. Nichols, R. Peverati, J. Pittner, Y. Zhao, P.-D. Fan, A. Fonari,
       M. Williamson, R. J. Harrison, J. R. Rehr, M. Dupuis, D. Silverstein,
    D. M. A. Smith, J. Nieplocha, V. Tipparaju, M. Krishnan, B. E. Van Kuiken,
        A. Vazquez-Mayagoitia, L. Jensen, M. Swart, Q. Wu, T. Van Voorhis,
     A. A. Auer, M. Nooijen, L. D. Crosby, E. Brown, G. Cisneros, G. I. Fann,
   H. Fruchtl, J. Garza, K. Hirao, R. A. Kendall, J. A. Nichols, K. Tsemekhman,
    K. Wolinski, J. Anchell, D. E. Bernholdt, P. Borowski, T. Clark, D. Clerc,
   H. Dachsel, M. J. O. Deegan, K. Dyall, D. Elwood, E. Glendening, M. Gutowski,
   A. C. Hess, J. Jaffe, B. G. Johnson, J. Ju, R. Kobayashi, R. Kutteh, Z. Lin,
   R. Littlefield, X. Long, B. Meng, T. Nakajima, S. Niu, L. Pollack, M. Rosing,
   K. Glaesemann, G. Sandrone, M. Stave, H. Taylor, G. Thomas, J. H. van Lenthe,
                               A. T. Wong, Z. Zhang.

 Total times  cpu:        1.3s     wall:        1.8s
