 argument  1 = wfn1_h_vx.nw



============================== echo of input deck ==============================
echo
start wfn1_h_dat

geometry
  h 0 0 0
end
basis
  * library 6-31g*
end

set wfn1:corr_expr "wfn1_vx"
set wfn1:print_error T
set wfn1:nopen  1
set wfn1:maxit  50
set wfn1:t_bath 0.0

task wfn1 energy

set wfn1:corr_expr "wfn1_vx"
set wfn1:print_error T
set wfn1:nopen  1
set wfn1:maxit  1000
set wfn1:t_bath 0.5

task wfn1 energy
================================================================================


                                         
                                         


              Northwest Computational Chemistry Package (NWChem) 6.8
              ------------------------------------------------------


                    Environmental Molecular Sciences Laboratory
                       Pacific Northwest National Laboratory
                                Richland, WA 99352

                              Copyright (c) 1994-2015
                       Pacific Northwest National Laboratory
                            Battelle Memorial Institute

             NWChem is an open-source computational chemistry package
                        distributed under the terms of the
                      Educational Community License (ECL) 2.0
             A copy of the license is included with this distribution
                              in the LICENSE.TXT file

                                  ACKNOWLEDGMENT
                                  --------------

            This software and its documentation were developed at the
            EMSL at Pacific Northwest National Laboratory, a multiprogram
            national laboratory, operated for the U.S. Department of Energy
            by Battelle under Contract Number DE-AC05-76RL01830. Support
            for this work was provided by the Department of Energy Office
            of Biological and Environmental Research, Office of Basic
            Energy Sciences, and the Office of Advanced Scientific Computing.


           Job information
           ---------------

    hostname        = erato
    program         = ../../../bin/LINUX64/nwchem
    date            = Sun Apr 15 15:36:15 2018

    compiled        = Sun_Apr_15_02:00:24_2018
    source          = /home/hvandam/nwchem-1-wfn1
    nwchem branch   = Development
    nwchem revision = nwchem_on_git-43-g1da910a14a1baa79875d411dd27e7a055ccc07e6
    ga revision     = nwchem_on_git-43-g1da910a
    use scalapack   = F
    input           = wfn1_h_vx.nw
    prefix          = wfn1_h_dat.
    data base       = ./wfn1_h_dat.db
    status          = startup
    nproc           =        1
    time left       =     -1s



           Memory information
           ------------------

    heap     =   13107198 doubles =    100.0 Mbytes
    stack    =   13107195 doubles =    100.0 Mbytes
    global   =   26214400 doubles =    200.0 Mbytes (distinct from heap & stack)
    total    =   52428793 doubles =    400.0 Mbytes
    verify   = yes
    hardfail = no 


           Directory information
           ---------------------

  0 permanent = .
  0 scratch   = .




                                NWChem Input Module
                                -------------------



 Scaling coordinates for geometry "geometry" by  1.889725989
 (inverse scale =  0.529177249)



                             Geometry "geometry" -> ""
                             -------------------------

 Output coordinates in angstroms (scale by  1.889725989 to convert to a.u.)

  No.       Tag          Charge          X              Y              Z
 ---- ---------------- ---------- -------------- -------------- --------------
    1 h                    1.0000     0.00000000     0.00000000     0.00000000

      Atomic Mass 
      ----------- 

      h                  1.007825


 Effective nuclear repulsion energy (a.u.)       0.0000000000

            Nuclear Dipole moment (a.u.) 
            ----------------------------
        X                 Y               Z
 ---------------- ---------------- ----------------
     0.0000000000     0.0000000000     0.0000000000


            XYZ format geometry
            -------------------
     1
 geometry
 h                     0.00000000     0.00000000     0.00000000



 Summary of "ao basis" -> "" (cartesian)
 ------------------------------------------------------------------------------
       Tag                 Description            Shells   Functions and Types
 ---------------- ------------------------------  ------  ---------------------
 *                           6-31g*                   on all atoms 



                                NWChem WFN1 Module
                                ------------------


                      Basis "ao basis" -> "ao basis" (cartesian)
                      -----
  h (Hydrogen)
  ------------
            Exponent  Coefficients 
       -------------- ---------------------------------------------------------
  1 S  1.87311370E+01  0.033495
  1 S  2.82539370E+00  0.234727
  1 S  6.40121700E-01  0.813757

  2 S  1.61277800E-01  1.000000



 Summary of "ao basis" -> "ao basis" (cartesian)
 ------------------------------------------------------------------------------
       Tag                 Description            Shells   Functions and Types
 ---------------- ------------------------------  ------  ---------------------
 h                           6-31g*                  2        2   2s



      Superposition of Atomic Density Guess
      -------------------------------------

 Sum of atomic energies:          -0.49823254

      Non-variational initial energy
      ------------------------------

 Total energy =      -0.498233
 1-e energy   =      -0.498233
 2-e energy   =       0.000000
 HOMO         =      -0.498233
 LUMO         =       0.460935

 iteration              energy           error          err Na          err Nb          err Ca          err Cb
 ---------              ------           -----          ------          ------          ------          ------
         0         -0.49823291        0.000000        0.000000        0.000000        0.000000        0.000000

 Reached Convergence

 WFN1                     :
 --------------------------
 Total WFN1 energy =          -0.4982329107
 1-Electron energy =          -0.4982329107
 2-Electron energy =           0.0000000000
 Entropy energy    =           0.0000000000
 Nuclear energy    =           0.0000000000

 conventional Hartree-Fock:
 --------------------------
 Total SCF energy  =          -0.4982329107
 2-Electron energy =           0.0000000000


      Natural orbital occupation numbers

          Alpha     Beta
         ------   ------
     1   1.0000   0.0000
     2   0.0000   0.0000

                            WFN1 Final orbital energies
                            ---------------------------

              alpha       beta  
            --------    --------
       1     -0.4982      0.1305
       2      0.9162      1.0726

                  WFN1 Final alpha Correlation Function Analysis
                  ----------------------------------------------


 global array: Ca[1:2,1:2],  handle: -988 

            1           2  
       ----------- -----------
   1       1.00000    -0.00000
   2      -0.00000     1.00000

                   WFN1 Final beta Correlation Function Analysis
                   ---------------------------------------------


 global array: Cb[1:2,1:2],  handle: -987 

            1           2  
       ----------- -----------
   1       1.00000    -0.00000
   2      -0.00000     1.00000

                     WFN1 Final Alpha Natural Orbital Analysis
                     -----------------------------------------

 Vector    1  Occ=1.000000D+00  E=-4.982329D-01
              MO Center=  0.0D+00,  0.0D+00,  0.0D+00, r^2= 8.0D-01
   Bfn.  Coefficient  Atom+Function         Bfn.  Coefficient  Atom+Function  
  ----- ------------  ---------------      ----- ------------  ---------------
     2      0.665449  1 H  s                  1      0.427430  1 H  s          

 Vector    2  Occ=0.000000D+00  E= 9.161928D-01
              MO Center=  0.0D+00,  0.0D+00,  0.0D+00, r^2= 1.2D+00
   Bfn.  Coefficient  Atom+Function         Bfn.  Coefficient  Atom+Function  
  ----- ------------  ---------------      ----- ------------  ---------------
     1      1.257798  1 H  s                  2     -1.149752  1 H  s          


                     WFN1 Final Beta Natural Orbital Analysis
                     ----------------------------------------

 Vector    1  Occ=0.000000D+00  E= 1.304787D-01
              MO Center=  0.0D+00,  0.0D+00,  0.0D+00, r^2= 8.0D-01
   Bfn.  Coefficient  Atom+Function         Bfn.  Coefficient  Atom+Function  
  ----- ------------  ---------------      ----- ------------  ---------------
     2      0.665449  1 H  s                  1      0.427430  1 H  s          

 Vector    2  Occ=0.000000D+00  E= 1.072618D+00
              MO Center=  0.0D+00,  0.0D+00,  0.0D+00, r^2= 1.2D+00
   Bfn.  Coefficient  Atom+Function         Bfn.  Coefficient  Atom+Function  
  ----- ------------  ---------------      ----- ------------  ---------------
     1      1.257798  1 H  s                  2     -1.149752  1 H  s          


 Task  times  cpu:        0.0s     wall:        0.0s


                                NWChem Input Module
                                -------------------



                                NWChem WFN1 Module
                                ------------------



      Superposition of Atomic Density Guess
      -------------------------------------

 Sum of atomic energies:          -0.49823254

      Non-variational initial energy
      ------------------------------

 Total energy =      -0.498233
 1-e energy   =      -0.498233
 2-e energy   =       0.000000
 HOMO         =      -0.498233
 LUMO         =       0.460935

 iteration              energy           error          err Na          err Nb          err Ca          err Cb
 ---------              ------           -----          ------          ------          ------          ------
         1         -0.82263014        0.027144        0.000000        0.000000        0.015076        0.012068
         2         -0.82264104        0.029162        0.000000        0.000000        0.016483        0.012679
         3         -0.82264104        0.029198        0.000000        0.000000        0.016508        0.012690
         4         -0.82264104        0.029198        0.000000        0.000000        0.016508        0.012690
         5         -0.81697316        0.012632        0.000000        0.000000        0.000001        0.012631
         6         -0.82263243        0.456646        0.000000        0.000000        0.017835        0.438811
         7         -0.82264104        0.458688        0.000000        0.000000        0.016501        0.442187
         8         -0.82264104        0.458677        0.000000        0.000000        0.016508        0.442169
         9         -0.82264104        0.458676        0.000000        0.000000        0.016508        0.442168
        10         -0.82264104        0.402782        0.000000        0.000000        0.016508        0.386273
        11         -0.82264104        0.016510        0.000000        0.000000        0.016508        0.000002
        12         -0.81697316        0.000003        0.000000        0.000000        0.000001        0.000002
        13         -0.82263243        0.025356        0.000000        0.000000        0.017835        0.007521
        14         -0.82264104        0.024338        0.000000        0.000000        0.016501        0.007837
        15         -0.82264104        0.024343        0.000000        0.000000        0.016508        0.007835
        16         -0.82264104        0.024344        0.000000        0.000000        0.016508        0.007835
        17         -0.81697316        0.007800        0.000000        0.000000        0.000001        0.007799
        18         -0.82263243        0.196997        0.000000        0.000000        0.017835        0.179161
        19         -0.82264104        0.189752        0.000000        0.000000        0.016501        0.173251
        20         -0.82264104        0.189793        0.000000        0.000000        0.016508        0.173285
        21         -0.82264104        0.189794        0.000000        0.000000        0.016508        0.173286
        22         -0.82264104        0.016527        0.000000        0.000000        0.016508        0.000018
        23         -0.81697316        0.000020        0.000000        0.000000        0.000001        0.000018
        24         -0.82263243        0.090487        0.000000        0.000000        0.017835        0.072651
        25         -0.82264104        0.086348        0.000000        0.000000        0.016501        0.069848
        26         -0.82264104        0.086372        0.000000        0.000000        0.016508        0.069864
        27         -0.82264104        0.086372        0.000000        0.000000        0.016508        0.069864
        28         -0.82264104        0.016799        0.000000        0.000000        0.016508        0.000291
        29         -0.81697316        0.000291        0.000000        0.000000        0.000001        0.000290
        30         -0.82263243        0.472365        0.000000        0.000000        0.017835        0.454530
        31         -0.82264104        0.471983        0.000000        0.000000        0.016501        0.455483
        32         -0.82264104        0.471986        0.000000        0.000000        0.016508        0.455478
        33         -0.82264104        0.471986        0.000000        0.000000        0.016508        0.455478
        34         -0.82264104        0.019395        0.000000        0.000000        0.016508        0.002887
        35         -0.81697316        0.002875        0.000000        0.000000        0.000001        0.002874
        36         -0.82263243        0.329805        0.000000        0.000000        0.017835        0.311970
        37         -0.82264104        0.335769        0.000000        0.000000        0.016501        0.319268
        38         -0.82264104        0.335733        0.000000        0.000000        0.016508        0.319225
        39         -0.82264104        0.335732        0.000000        0.000000        0.016508        0.319224
        40         -0.82264104        0.472613        0.000000        0.000000        0.016508        0.456105
        41         -0.82264104        0.024028        0.000000        0.000000        0.016508        0.007520
        42         -0.81697316        0.007486        0.000000        0.000000        0.000001        0.007485
        43         -0.82263243        0.384849        0.000000        0.000000        0.017835        0.367013
        44         -0.82264104        0.390202        0.000000        0.000000        0.016501        0.373701
        45         -0.82264104        0.390171        0.000000        0.000000        0.016508        0.373663
        46         -0.82264104        0.390170        0.000000        0.000000        0.016508        0.373662
        47         -0.82264104        0.016509        0.000000        0.000000        0.016508        0.000000
        48         -0.81697316        0.000002        0.000000        0.000000        0.000001        0.000000
        49         -0.82263243        0.019073        0.000000        0.000000        0.017835        0.001238
        50         -0.82264104        0.017791        0.000000        0.000000        0.016501        0.001290
        51         -0.82264104        0.017798        0.000000        0.000000        0.016508        0.001290
        52         -0.82264104        0.017798        0.000000        0.000000        0.016508        0.001290
        53         -0.81697316        0.001285        0.000000        0.000000        0.000001        0.001284
        54         -0.82263243        0.089657        0.000000        0.000000        0.017835        0.071822
        55         -0.82264104        0.085548        0.000000        0.000000        0.016501        0.069048
        56         -0.82264104        0.085571        0.000000        0.000000        0.016508        0.069063
        57         -0.82264104        0.085572        0.000000        0.000000        0.016508        0.069064
        58         -0.82264104        0.016787        0.000000        0.000000        0.016508        0.000279
        59         -0.81697316        0.000279        0.000000        0.000000        0.000001        0.000277
        60         -0.82263243        0.473869        0.000000        0.000000        0.017835        0.456033
        61         -0.82264104        0.472816        0.000000        0.000000        0.016501        0.456315
        62         -0.82264104        0.472823        0.000000        0.000000        0.016508        0.456315
        63         -0.82264104        0.472823        0.000000        0.000000        0.016508        0.456315
        64         -0.82264104        0.020972        0.000000        0.000000        0.016508        0.004464
        65         -0.81697316        0.004444        0.000000        0.000000        0.000001        0.004443
        66         -0.82263243        0.062828        0.000000        0.000000        0.017835        0.044993
        67         -0.82264104        0.063304        0.000000        0.000000        0.016501        0.046804
        68         -0.82264104        0.063301        0.000000        0.000000        0.016508        0.046793
        69         -0.82264104        0.063301        0.000000        0.000000        0.016508        0.046793
        70         -0.82264104        0.016626        0.000000        0.000000        0.016508        0.000118
        71         -0.81697316        0.000118        0.000000        0.000000        0.000001        0.000117
        72         -0.82263243        0.369595        0.000000        0.000000        0.017835        0.351760
        73         -0.82264104        0.375220        0.000000        0.000000        0.016501        0.358719
        74         -0.82264104        0.375187        0.000000        0.000000        0.016508        0.358679
        75         -0.82264104        0.375186        0.000000        0.000000        0.016508        0.358677
        76         -0.82264104        0.016508        0.000000        0.000000        0.016508        0.000000
        77         -0.81697316        0.000001        0.000000        0.000000        0.000001        0.000000
        78         -0.82263243        0.017974        0.000000        0.000000        0.017835        0.000138
        79         -0.82264104        0.016645        0.000000        0.000000        0.016501        0.000144
        80         -0.82264104        0.016652        0.000000        0.000000        0.016508        0.000144
        81         -0.82264104        0.016653        0.000000        0.000000        0.016508        0.000144
        82         -0.81697316        0.000145        0.000000        0.000000        0.000001        0.000144
        83         -0.82263243        0.410281        0.000000        0.000000        0.017835        0.392446
        84         -0.82264104        0.414949        0.000000        0.000000        0.016501        0.398448
        85         -0.82264104        0.414922        0.000000        0.000000        0.016508        0.398414
        86         -0.82264104        0.414921        0.000000        0.000000        0.016508        0.398413
        87         -0.82264104        0.016519        0.000000        0.000000        0.016508        0.000011
        88         -0.81697316        0.000012        0.000000        0.000000        0.000001        0.000011
        89         -0.82263243        0.064227        0.000000        0.000000        0.017835        0.046391
        90         -0.82264104        0.064756        0.000000        0.000000        0.016501        0.048255
        91         -0.82264104        0.064752        0.000000        0.000000        0.016508        0.048244
        92         -0.82264104        0.064752        0.000000        0.000000        0.016508        0.048244
        93         -0.82264104        0.016638        0.000000        0.000000        0.016508        0.000129
        94         -0.81697316        0.000130        0.000000        0.000000        0.000001        0.000129
        95         -0.82263243        0.389163        0.000000        0.000000        0.017835        0.371327
        96         -0.82264104        0.394423        0.000000        0.000000        0.016501        0.377922
        97         -0.82264104        0.394392        0.000000        0.000000        0.016508        0.377884
        98         -0.82264104        0.394391        0.000000        0.000000        0.016508        0.377883
        99         -0.82264104        0.016509        0.000000        0.000000        0.016508        0.000001
       100         -0.81697316        0.000002        0.000000        0.000000        0.000001        0.000001
       101         -0.82263243        0.020085        0.000000        0.000000        0.017835        0.002249
       102         -0.82264104        0.018845        0.000000        0.000000        0.016501        0.002344
       103         -0.82264104        0.018852        0.000000        0.000000        0.016508        0.002344
       104         -0.82264104        0.018852        0.000000        0.000000        0.016508        0.002344
       105         -0.81697316        0.002334        0.000000        0.000000        0.000001        0.002333
       106         -0.82263243        0.471919        0.000000        0.000000        0.017835        0.454084
       107         -0.82264104        0.471675        0.000000        0.000000        0.016501        0.455174
       108         -0.82264104        0.471677        0.000000        0.000000        0.016508        0.455169
       109         -0.82264104        0.471677        0.000000        0.000000        0.016508        0.455168
       110         -0.82264104        0.019144        0.000000        0.000000        0.016508        0.002636
       111         -0.81697316        0.002625        0.000000        0.000000        0.000001        0.002623
       112         -0.82263243        0.417296        0.000000        0.000000        0.017835        0.399460
       113         -0.82264104        0.421710        0.000000        0.000000        0.016501        0.405209
       114         -0.82264104        0.421684        0.000000        0.000000        0.016508        0.405176
       115         -0.82264104        0.421683        0.000000        0.000000        0.016508        0.405175
       116         -0.82264104        0.016541        0.000000        0.000000        0.016508        0.000032
       117         -0.81697316        0.000034        0.000000        0.000000        0.000001        0.000032
       118         -0.82263243        0.147959        0.000000        0.000000        0.017835        0.130124
       119         -0.82264104        0.151270        0.000000        0.000000        0.016501        0.134769
       120         -0.82264104        0.151249        0.000000        0.000000        0.016508        0.134741
       121         -0.82264104        0.151249        0.000000        0.000000        0.016508        0.134741
       122         -0.82264104        0.016512        0.000000        0.000000        0.016508        0.000003
       123         -0.81697316        0.000005        0.000000        0.000000        0.000001        0.000003
       124         -0.82263243        0.032367        0.000000        0.000000        0.017835        0.014531
       125         -0.82264104        0.031639        0.000000        0.000000        0.016501        0.015138
       126         -0.82264104        0.031643        0.000000        0.000000        0.016508        0.015135
       127         -0.82264104        0.031643        0.000000        0.000000        0.016508        0.015135
       128         -0.81697316        0.015065        0.000000        0.000000        0.000001        0.015064
       129         -0.82263243        0.089752        0.000000        0.000000        0.017835        0.071916
       130         -0.82264104        0.091212        0.000000        0.000000        0.016501        0.074711
       131         -0.82264104        0.091202        0.000000        0.000000        0.016508        0.074694
       132         -0.82264104        0.091202        0.000000        0.000000        0.016508        0.074694
       133         -0.82264104        0.017060        0.000000        0.000000        0.016508        0.000552
       134         -0.81697316        0.000551        0.000000        0.000000        0.000001        0.000550
       135         -0.82263243        0.261539        0.000000        0.000000        0.017835        0.243704
       136         -0.82264104        0.253130        0.000000        0.000000        0.016501        0.236629
       137         -0.82264104        0.253178        0.000000        0.000000        0.016508        0.236670
       138         -0.82264104        0.253179        0.000000        0.000000        0.016508        0.236671
       139         -0.82264104        0.016666        0.000000        0.000000        0.016508        0.000158
       140         -0.81697316        0.000158        0.000000        0.000000        0.000001        0.000157
       141         -0.82263243        0.415678        0.000000        0.000000        0.017835        0.397842
       142         -0.82264104        0.408121        0.000000        0.000000        0.016501        0.391620
       143         -0.82264104        0.408165        0.000000        0.000000        0.016508        0.391657
       144         -0.82264104        0.408166        0.000000        0.000000        0.016508        0.391658
       145         -0.82264104        0.016508        0.000000        0.000000        0.016508        0.000000
       146         -0.81697316        0.000001        0.000000        0.000000        0.000001        0.000000
       147         -0.82263243        0.018167        0.000000        0.000000        0.017835        0.000332
       148         -0.82264104        0.016819        0.000000        0.000000        0.016501        0.000318
       149         -0.82264104        0.016826        0.000000        0.000000        0.016508        0.000318
       150         -0.82264104        0.016826        0.000000        0.000000        0.016508        0.000318
       151         -0.81697316        0.000318        0.000000        0.000000        0.000001        0.000317
       152         -0.82263243        0.465524        0.000000        0.000000        0.017836        0.447688
       153         -0.82264104        0.466529        0.000000        0.000000        0.016501        0.450028
       154         -0.82264104        0.466524        0.000000        0.000000        0.016508        0.450016
       155         -0.82264104        0.466524        0.000000        0.000000        0.016508        0.450015
       156         -0.82264104        0.356827        0.000000        0.000000        0.016508        0.340319
       157         -0.82264104        0.472684        0.000000        0.000000        0.016508        0.456175
       158         -0.82264104        0.020414        0.000000        0.000000        0.016508        0.003906
       159         -0.81697316        0.003889        0.000000        0.000000        0.000001        0.003888
       160         -0.82263243        0.023042        0.000000        0.000000        0.017835        0.005206
       161         -0.82264104        0.021927        0.000000        0.000000        0.016501        0.005426
       162         -0.82264104        0.021933        0.000000        0.000000        0.016508        0.005425
       163         -0.82264104        0.021933        0.000000        0.000000        0.016508        0.005424
       164         -0.81697316        0.005401        0.000000        0.000000        0.000001        0.005399
       165         -0.82263243        0.339060        0.000000        0.000000        0.017835        0.321225
       166         -0.82264104        0.344986        0.000000        0.000000        0.016501        0.328485
       167         -0.82264104        0.344951        0.000000        0.000000        0.016508        0.328443
       168         -0.82264104        0.344950        0.000000        0.000000        0.016508        0.328441
       169         -0.82264104        0.376522        0.000000        0.000000        0.016508        0.360014
       170         -0.82264104        0.016508        0.000000        0.000000        0.016508        0.000000
       171         -0.81697316        0.000001        0.000000        0.000000        0.000001        0.000000
       172         -0.82263243        0.018006        0.000000        0.000000        0.017835        0.000171
       173         -0.82264104        0.016679        0.000000        0.000000        0.016501        0.000178
       174         -0.82264104        0.016686        0.000000        0.000000        0.016508        0.000178
       175         -0.82264104        0.016686        0.000000        0.000000        0.016508        0.000178
       176         -0.81697316        0.000179        0.000000        0.000000        0.000001        0.000177
       177         -0.82263243        0.445881        0.000000        0.000000        0.017835        0.428046
       178         -0.82264104        0.448805        0.000000        0.000000        0.016501        0.432304
       179         -0.82264104        0.448788        0.000000        0.000000        0.016508        0.432280
       180         -0.82264104        0.448787        0.000000        0.000000        0.016508        0.432279
       181         -0.82264104        0.026758        0.000000        0.000000        0.016508        0.010249
       182         -0.81697316        0.010203        0.000000        0.000000        0.000001        0.010202
       183         -0.82263243        0.155029        0.000000        0.000000        0.017835        0.137193
       184         -0.82264104        0.148850        0.000000        0.000000        0.016501        0.132350
       185         -0.82264104        0.148885        0.000000        0.000000        0.016508        0.132377
       186         -0.82264104        0.148886        0.000000        0.000000        0.016508        0.132378
       187         -0.82264104        0.016510        0.000000        0.000000        0.016508        0.000002
       188         -0.81697316        0.000003        0.000000        0.000000        0.000001        0.000002
       189         -0.82263243        0.025392        0.000000        0.000000        0.017835        0.007557
       190         -0.82264104        0.023743        0.000000        0.000000        0.016501        0.007242
       191         -0.82264104        0.023752        0.000000        0.000000        0.016508        0.007244
       192         -0.82264104        0.023753        0.000000        0.000000        0.016508        0.007244
       193         -0.81697316        0.007212        0.000000        0.000000        0.000001        0.007210
       194         -0.82263243        0.433207        0.000000        0.000000        0.017835        0.415371
       195         -0.82264104        0.436901        0.000000        0.000000        0.016501        0.420400
       196         -0.82264104        0.436879        0.000000        0.000000        0.016508        0.420371
       197         -0.82264104        0.436879        0.000000        0.000000        0.016508        0.420370
       198         -0.82264104        0.017049        0.000000        0.000000        0.016508        0.000541
       199         -0.81697316        0.000540        0.000000        0.000000        0.000001        0.000538
       200         -0.82263243        0.272326        0.000000        0.000000        0.017835        0.254491
       201         -0.82264104        0.263786        0.000000        0.000000        0.016501        0.247286
       202         -0.82264104        0.263835        0.000000        0.000000        0.016508        0.247327
       203         -0.82264104        0.263837        0.000000        0.000000        0.016508        0.247328
       204         -0.82264104        0.016675        0.000000        0.000000        0.016508        0.000167
       205         -0.81697316        0.000168        0.000000        0.000000        0.000001        0.000166
       206         -0.82263243        0.425946        0.000000        0.000000        0.017835        0.408110
       207         -0.82264104        0.418787        0.000000        0.000000        0.016501        0.402287
       208         -0.82264104        0.418829        0.000000        0.000000        0.016508        0.402321
       209         -0.82264104        0.418830        0.000000        0.000000        0.016508        0.402322
       210         -0.82264104        0.016509        0.000000        0.000000        0.016508        0.000000
       211         -0.81697316        0.000002        0.000000        0.000000        0.000001        0.000000
       212         -0.82263243        0.018897        0.000000        0.000000        0.017835        0.001062
       213         -0.82264104        0.017518        0.000000        0.000000        0.016501        0.001017
       214         -0.82264104        0.017526        0.000000        0.000000        0.016508        0.001018
       215         -0.82264104        0.017526        0.000000        0.000000        0.016508        0.001018
       216         -0.81697316        0.001014        0.000000        0.000000        0.000001        0.001013
       217         -0.82263243        0.021023        0.000000        0.000000        0.017835        0.003188
       218         -0.82264104        0.019823        0.000000        0.000000        0.016501        0.003323
       219         -0.82264104        0.019830        0.000000        0.000000        0.016508        0.003322
       220         -0.82264104        0.019830        0.000000        0.000000        0.016508        0.003322
       221         -0.81697316        0.003308        0.000000        0.000000        0.000001        0.003306
       222         -0.82263243        0.158036        0.000000        0.000000        0.017835        0.140201
       223         -0.82264104        0.161626        0.000000        0.000000        0.016501        0.145125
       224         -0.82264104        0.161604        0.000000        0.000000        0.016508        0.145096
       225         -0.82264104        0.161603        0.000000        0.000000        0.016508        0.145095
       226         -0.82264104        0.016514        0.000000        0.000000        0.016508        0.000006
       227         -0.81697316        0.000007        0.000000        0.000000        0.000001        0.000006
       228         -0.82263243        0.044438        0.000000        0.000000        0.017836        0.026602
       229         -0.82264104        0.044199        0.000000        0.000000        0.016501        0.027698
       230         -0.82264104        0.044199        0.000000        0.000000        0.016508        0.027691
       231         -0.82264104        0.044199        0.000000        0.000000        0.016508        0.027691
       232         -0.82264104        0.016533        0.000000        0.000000        0.016508        0.000024
       233         -0.81697316        0.000026        0.000000        0.000000        0.000001        0.000024
       234         -0.82263243        0.118195        0.000000        0.000000        0.017835        0.100360
       235         -0.82264104        0.120609        0.000000        0.000000        0.016501        0.104108
       236         -0.82264104        0.120593        0.000000        0.000000        0.016508        0.104085
       237         -0.82264104        0.120593        0.000000        0.000000        0.016508        0.104085
       238         -0.82264104        0.016509        0.000000        0.000000        0.016508        0.000000
       239         -0.81697316        0.000002        0.000000        0.000000        0.000001        0.000000
       240         -0.82263243        0.019280        0.000000        0.000000        0.017835        0.001445
       241         -0.82264104        0.018007        0.000000        0.000000        0.016501        0.001506
       242         -0.82264104        0.018014        0.000000        0.000000        0.016508        0.001506
       243         -0.82264104        0.018014        0.000000        0.000000        0.016508        0.001506
       244         -0.81697316        0.001500        0.000000        0.000000        0.000001        0.001499
       245         -0.82263243        0.204295        0.000000        0.000000        0.017835        0.186459
       246         -0.82264104        0.196888        0.000000        0.000000        0.016501        0.180388
       247         -0.82264104        0.196930        0.000000        0.000000        0.016508        0.180422
       248         -0.82264104        0.196932        0.000000        0.000000        0.016508        0.180423
       249         -0.82264104        0.016534        0.000000        0.000000        0.016508        0.000025
       250         -0.81697316        0.000027        0.000000        0.000000        0.000001        0.000025
       251         -0.82263243        0.116533        0.000000        0.000000        0.017835        0.098697
       252         -0.82264104        0.111516        0.000000        0.000000        0.016501        0.095016
       253         -0.82264104        0.111545        0.000000        0.000000        0.016508        0.095037
       254         -0.82264104        0.111545        0.000000        0.000000        0.016508        0.095037
       255         -0.82264104        0.017463        0.000000        0.000000        0.016508        0.000955
       256         -0.81697316        0.000951        0.000000        0.000000        0.000001        0.000950
       257         -0.82263243        0.032439        0.000000        0.000000        0.017835        0.014603
       258         -0.82264104        0.031714        0.000000        0.000000        0.016501        0.015213
       259         -0.82264104        0.031718        0.000000        0.000000        0.016508        0.015209
       260         -0.82264104        0.031718        0.000000        0.000000        0.016508        0.015209
       261         -0.81697316        0.015140        0.000000        0.000000        0.000001        0.015138
       262         -0.82263243        0.080034        0.000000        0.000000        0.017836        0.062199
       263         -0.82264104        0.081148        0.000000        0.000000        0.016501        0.064648
       264         -0.82264104        0.081141        0.000000        0.000000        0.016508        0.064633
       265         -0.82264104        0.081141        0.000000        0.000000        0.016508        0.064632
       266         -0.82264104        0.016844        0.000000        0.000000        0.016508        0.000336
       267         -0.81697316        0.000336        0.000000        0.000000        0.000001        0.000335
       268         -0.82263243        0.448253        0.000000        0.000000        0.017835        0.430417
       269         -0.82264104        0.442331        0.000000        0.000000        0.016501        0.425831
       270         -0.82264104        0.442366        0.000000        0.000000        0.016508        0.425858
       271         -0.82264104        0.442367        0.000000        0.000000        0.016508        0.425859
       272         -0.82264104        0.016854        0.000000        0.000000        0.016508        0.000346
       273         -0.81697316        0.000346        0.000000        0.000000        0.000001        0.000344
       274         -0.82263243        0.453964        0.000000        0.000000        0.017835        0.436129
       275         -0.82264104        0.456254        0.000000        0.000000        0.016501        0.439753
       276         -0.82264104        0.456241        0.000000        0.000000        0.016508        0.439733
       277         -0.82264104        0.456240        0.000000        0.000000        0.016508        0.439732
       278         -0.82264104        0.016556        0.000000        0.000000        0.016508        0.000048
       279         -0.81697316        0.000049        0.000000        0.000000        0.000001        0.000048
       280         -0.82263243        0.201061        0.000000        0.000000        0.017835        0.183226
       281         -0.82264104        0.205692        0.000000        0.000000        0.016501        0.189191
       282         -0.82264104        0.205663        0.000000        0.000000        0.016508        0.189155
       283         -0.82264104        0.205663        0.000000        0.000000        0.016508        0.189154
       284         -0.82264104        0.016557        0.000000        0.000000        0.016508        0.000048
       285         -0.81697316        0.000050        0.000000        0.000000        0.000001        0.000048
       286         -0.82263243        0.201871        0.000000        0.000000        0.017835        0.184035
       287         -0.82264104        0.206519        0.000000        0.000000        0.016501        0.190018
       288         -0.82264104        0.206490        0.000000        0.000000        0.016508        0.189982
       289         -0.82264104        0.206490        0.000000        0.000000        0.016508        0.189981
       290         -0.82264104        0.016558        0.000000        0.000000        0.016508        0.000050
       291         -0.81697316        0.000051        0.000000        0.000000        0.000001        0.000050
       292         -0.82263243        0.206815        0.000000        0.000000        0.017836        0.188980
       293         -0.82264104        0.211566        0.000000        0.000000        0.016501        0.195066
       294         -0.82264104        0.211538        0.000000        0.000000        0.016508        0.195029
       295         -0.82264104        0.211537        0.000000        0.000000        0.016508        0.195028
       296         -0.82264104        0.016569        0.000000        0.000000        0.016508        0.000060
       297         -0.81697316        0.000061        0.000000        0.000000        0.000001        0.000060
       298         -0.82263243        0.238058        0.000000        0.000000        0.017835        0.220223
       299         -0.82264104        0.243373        0.000000        0.000000        0.016501        0.226872
       300         -0.82264104        0.243341        0.000000        0.000000        0.016508        0.226833
       301         -0.82264104        0.243340        0.000000        0.000000        0.016508        0.226832
       302         -0.82264104        0.016654        0.000000        0.000000        0.016508        0.000146
       303         -0.81697316        0.000146        0.000000        0.000000        0.000001        0.000145
       304         -0.82263243        0.412187        0.000000        0.000000        0.017835        0.394352
       305         -0.82264104        0.416789        0.000000        0.000000        0.016501        0.400288
       306         -0.82264104        0.416762        0.000000        0.000000        0.016508        0.400254
       307         -0.82264104        0.416762        0.000000        0.000000        0.016508        0.400253
       308         -0.82264104        0.016523        0.000000        0.000000        0.016508        0.000014
       309         -0.81697316        0.000016        0.000000        0.000000        0.000001        0.000014
       310         -0.82263243        0.079337        0.000000        0.000000        0.017835        0.061501
       311         -0.82264104        0.080426        0.000000        0.000000        0.016501        0.063925
       312         -0.82264104        0.080418        0.000000        0.000000        0.016508        0.063910
       313         -0.82264104        0.080418        0.000000        0.000000        0.016508        0.063910
       314         -0.82264104        0.016832        0.000000        0.000000        0.016508        0.000324
       315         -0.81697316        0.000323        0.000000        0.000000        0.000001        0.000322
       316         -0.82263243        0.454967        0.000000        0.000000        0.017835        0.437132
       317         -0.82264104        0.449579        0.000000        0.000000        0.016501        0.433078
       318         -0.82264104        0.449611        0.000000        0.000000        0.016508        0.433103
       319         -0.82264104        0.449612        0.000000        0.000000        0.016508        0.433104
       320         -0.82264104        0.019136        0.000000        0.000000        0.016508        0.002627
       321         -0.81697316        0.002616        0.000000        0.000000        0.000001        0.002615
       322         -0.82263243        0.456069        0.000000        0.000000        0.017836        0.438233
       323         -0.82264104        0.450779        0.000000        0.000000        0.016501        0.434278
       324         -0.82264104        0.450810        0.000000        0.000000        0.016508        0.434302
       325         -0.82264104        0.450811        0.000000        0.000000        0.016508        0.434303
       326         -0.82264104        0.020324        0.000000        0.000000        0.016508        0.003816
       327         -0.81697316        0.003799        0.000000        0.000000        0.000001        0.003798
       328         -0.82263243        0.075012        0.000000        0.000000        0.017835        0.057177
       329         -0.82264104        0.071428        0.000000        0.000000        0.016501        0.054928
       330         -0.82264104        0.071449        0.000000        0.000000        0.016508        0.054941
       331         -0.82264104        0.071449        0.000000        0.000000        0.016508        0.054941
       332         -0.82264104        0.016628        0.000000        0.000000        0.016508        0.000119
       333         -0.81697316        0.000120        0.000000        0.000000        0.000001        0.000119
       334         -0.82263243        0.360137        0.000000        0.000000        0.017835        0.342302
       335         -0.82264104        0.351438        0.000000        0.000000        0.016501        0.334937
       336         -0.82264104        0.351488        0.000000        0.000000        0.016508        0.334980
       337         -0.82264104        0.351490        0.000000        0.000000        0.016508        0.334981
       338         -0.82264104        0.398356        0.000000        0.000000        0.016508        0.381847
       339         -0.82264104        0.016508        0.000000        0.000000        0.016508        0.000000
       340         -0.81697316        0.000001        0.000000        0.000000        0.000001        0.000000
       341         -0.82263243        0.018424        0.000000        0.000000        0.017835        0.000589
       342         -0.82264104        0.017065        0.000000        0.000000        0.016501        0.000564
       343         -0.82264104        0.017072        0.000000        0.000000        0.016508        0.000564
       344         -0.82264104        0.017072        0.000000        0.000000        0.016508        0.000564
       345         -0.81697316        0.000563        0.000000        0.000000        0.000001        0.000561
       346         -0.82263243        0.282148        0.000000        0.000000        0.017835        0.264312
       347         -0.82264104        0.287983        0.000000        0.000000        0.016501        0.271482
       348         -0.82264104        0.287948        0.000000        0.000000        0.016508        0.271440
       349         -0.82264104        0.287947        0.000000        0.000000        0.016508        0.271439
       350         -0.82264104        0.016556        0.000000        0.000000        0.016508        0.000048
       351         -0.81697316        0.000049        0.000000        0.000000        0.000001        0.000048
       352         -0.82263243        0.201054        0.000000        0.000000        0.017835        0.183219
       353         -0.82264104        0.205684        0.000000        0.000000        0.016501        0.189184
       354         -0.82264104        0.205656        0.000000        0.000000        0.016508        0.189148
       355         -0.82264104        0.205655        0.000000        0.000000        0.016508        0.189147
       356         -0.82264104        0.016557        0.000000        0.000000        0.016508        0.000048
       357         -0.81697316        0.000050        0.000000        0.000000        0.000001        0.000048
       358         -0.82263243        0.201826        0.000000        0.000000        0.017835        0.183991
       359         -0.82264104        0.206473        0.000000        0.000000        0.016501        0.189972
       360         -0.82264104        0.206445        0.000000        0.000000        0.016508        0.189937
       361         -0.82264104        0.206444        0.000000        0.000000        0.016508        0.189936
       362         -0.82264104        0.016558        0.000000        0.000000        0.016508        0.000050
       363         -0.81697316        0.000051        0.000000        0.000000        0.000001        0.000050
       364         -0.82263243        0.206541        0.000000        0.000000        0.017836        0.188705
       365         -0.82264104        0.211286        0.000000        0.000000        0.016501        0.194786
       366         -0.82264104        0.211257        0.000000        0.000000        0.016508        0.194749
       367         -0.82264104        0.211257        0.000000        0.000000        0.016508        0.194748
       368         -0.82264104        0.016568        0.000000        0.000000        0.016508        0.000060
       369         -0.81697316        0.000061        0.000000        0.000000        0.000001        0.000059
       370         -0.82263243        0.236285        0.000000        0.000000        0.017835        0.218450
       371         -0.82264104        0.241572        0.000000        0.000000        0.016501        0.225071
       372         -0.82264104        0.241540        0.000000        0.000000        0.016508        0.225032
       373         -0.82264104        0.241539        0.000000        0.000000        0.016508        0.225031
       374         -0.82264104        0.016650        0.000000        0.000000        0.016508        0.000141
       375         -0.81697316        0.000142        0.000000        0.000000        0.000001        0.000141
       376         -0.82263243        0.406458        0.000000        0.000000        0.017835        0.388622
       377         -0.82264104        0.411250        0.000000        0.000000        0.016501        0.394749
       378         -0.82264104        0.411222        0.000000        0.000000        0.016508        0.394714
       379         -0.82264104        0.411221        0.000000        0.000000        0.016508        0.394713
       380         -0.82264104        0.016514        0.000000        0.000000        0.016508        0.000006
       381         -0.81697316        0.000007        0.000000        0.000000        0.000001        0.000006
       382         -0.82263243        0.044243        0.000000        0.000000        0.017835        0.026408
       383         -0.82264104        0.043996        0.000000        0.000000        0.016501        0.027495
       384         -0.82264104        0.043997        0.000000        0.000000        0.016508        0.027489
       385         -0.82264104        0.043997        0.000000        0.000000        0.016508        0.027488
       386         -0.82264104        0.016532        0.000000        0.000000        0.016508        0.000024
       387         -0.81697316        0.000025        0.000000        0.000000        0.000001        0.000024
       388         -0.82263243        0.116277        0.000000        0.000000        0.017835        0.098442
       389         -0.82264104        0.118629        0.000000        0.000000        0.016501        0.102129
       390         -0.82264104        0.118615        0.000000        0.000000        0.016508        0.102107
       391         -0.82264104        0.118614        0.000000        0.000000        0.016508        0.102106
       392         -0.82264104        0.016509        0.000000        0.000000        0.016508        0.000000
       393         -0.81697316        0.000002        0.000000        0.000000        0.000001        0.000000
       394         -0.82263243        0.019030        0.000000        0.000000        0.017836        0.001194
       395         -0.82264104        0.017746        0.000000        0.000000        0.016501        0.001245
       396         -0.82264104        0.017753        0.000000        0.000000        0.016508        0.001245
       397         -0.82264104        0.017753        0.000000        0.000000        0.016508        0.001245
       398         -0.81697316        0.001240        0.000000        0.000000        0.000001        0.001239
       399         -0.82263243        0.069994        0.000000        0.000000        0.017835        0.052158
       400         -0.82264104        0.066595        0.000000        0.000000        0.016501        0.050094
       401         -0.82264104        0.066614        0.000000        0.000000        0.016508        0.050106
       402         -0.82264104        0.066615        0.000000        0.000000        0.016508        0.050106
       403         -0.82264104        0.016593        0.000000        0.000000        0.016508        0.000085
       404         -0.81697316        0.000086        0.000000        0.000000        0.000001        0.000085
       405         -0.82263243        0.291037        0.000000        0.000000        0.017835        0.273202
       406         -0.82264104        0.282322        0.000000        0.000000        0.016501        0.265822
       407         -0.82264104        0.282372        0.000000        0.000000        0.016508        0.265864
       408         -0.82264104        0.282374        0.000000        0.000000        0.016508        0.265865
       409         -0.82264104        0.016571        0.000000        0.000000        0.016508        0.000063
       410         -0.81697316        0.000064        0.000000        0.000000        0.000001        0.000063
       411         -0.82263243        0.234550        0.000000        0.000000        0.017835        0.216715
       412         -0.82264104        0.226551        0.000000        0.000000        0.016501        0.210050
       413         -0.82264104        0.226597        0.000000        0.000000        0.016508        0.210089
       414         -0.82264104        0.226598        0.000000        0.000000        0.016508        0.210090
       415         -0.82264104        0.016590        0.000000        0.000000        0.016508        0.000081
       416         -0.81697316        0.000082        0.000000        0.000000        0.000001        0.000081
       417         -0.82263243        0.282038        0.000000        0.000000        0.017835        0.264203
       418         -0.82264104        0.273399        0.000000        0.000000        0.016501        0.256898
       419         -0.82264104        0.273449        0.000000        0.000000        0.016508        0.256941
       420         -0.82264104        0.273450        0.000000        0.000000        0.016508        0.256942
       421         -0.82264104        0.016645        0.000000        0.000000        0.016508        0.000137
       422         -0.81697316        0.000137        0.000000        0.000000        0.000001        0.000136
       423         -0.82263243        0.387841        0.000000        0.000000        0.017835        0.370005
       424         -0.82264104        0.379539        0.000000        0.000000        0.016501        0.363039
       425         -0.82264104        0.379588        0.000000        0.000000        0.016508        0.363080
       426         -0.82264104        0.379589        0.000000        0.000000        0.016508        0.363081
       427         -0.82264104        0.016508        0.000000        0.000000        0.016508        0.000000
       428         -0.81697316        0.000001        0.000000        0.000000        0.000001        0.000000
       429         -0.82263243        0.017890        0.000000        0.000000        0.017835        0.000055
       430         -0.82264104        0.016553        0.000000        0.000000        0.016501        0.000053
       431         -0.82264104        0.016561        0.000000        0.000000        0.016508        0.000053
       432         -0.82264104        0.016561        0.000000        0.000000        0.016508        0.000053
       433         -0.81697316        0.000054        0.000000        0.000000        0.000001        0.000052
       434         -0.82263243        0.205316        0.000000        0.000000        0.017835        0.187481
       435         -0.82264104        0.197887        0.000000        0.000000        0.016501        0.181386
       436         -0.82264104        0.197929        0.000000        0.000000        0.016508        0.181421
       437         -0.82264104        0.197931        0.000000        0.000000        0.016508        0.181422
       438         -0.82264104        0.016535        0.000000        0.000000        0.016508        0.000027
       439         -0.81697316        0.000028        0.000000        0.000000        0.000001        0.000026
       440         -0.82263243        0.120651        0.000000        0.000000        0.017835        0.102816
       441         -0.82264104        0.115503        0.000000        0.000000        0.016501        0.099002
       442         -0.82264104        0.115532        0.000000        0.000000        0.016508        0.099024
       443         -0.82264104        0.115533        0.000000        0.000000        0.016508        0.099024
       444         -0.82264104        0.016508        0.000000        0.000000        0.016508        0.000000
       445         -0.81697316        0.000001        0.000000        0.000000        0.000001        0.000000
       446         -0.82263243        0.018246        0.000000        0.000000        0.017835        0.000410
       447         -0.82264104        0.016894        0.000000        0.000000        0.016501        0.000393
       448         -0.82264104        0.016901        0.000000        0.000000        0.016508        0.000393
       449         -0.82264104        0.016901        0.000000        0.000000        0.016508        0.000393
       450         -0.81697316        0.000393        0.000000        0.000000        0.000001        0.000391
       451         -0.82263243        0.426432        0.000000        0.000000        0.017836        0.408596
       452         -0.82264104        0.430460        0.000000        0.000000        0.016501        0.413959
       453         -0.82264104        0.430437        0.000000        0.000000        0.016508        0.413929
       454         -0.82264104        0.430436        0.000000        0.000000        0.016508        0.413928
       455         -0.82264104        0.016661        0.000000        0.000000        0.016508        0.000152
       456         -0.81697316        0.000153        0.000000        0.000000        0.000001        0.000152
       457         -0.82263243        0.420286        0.000000        0.000000        0.017835        0.402451
       458         -0.82264104        0.424580        0.000000        0.000000        0.016501        0.408079
       459         -0.82264104        0.424555        0.000000        0.000000        0.016508        0.408047
       460         -0.82264104        0.424554        0.000000        0.000000        0.016508        0.408046
       461         -0.82264104        0.016561        0.000000        0.000000        0.016508        0.000053
       462         -0.81697316        0.000054        0.000000        0.000000        0.000001        0.000053
       463         -0.82263243        0.216082        0.000000        0.000000        0.017835        0.198246
       464         -0.82264104        0.221015        0.000000        0.000000        0.016501        0.204515
       465         -0.82264104        0.220986        0.000000        0.000000        0.016508        0.204478
       466         -0.82264104        0.220985        0.000000        0.000000        0.016508        0.204476
       467         -0.82264104        0.016592        0.000000        0.000000        0.016508        0.000083
       468         -0.81697316        0.000084        0.000000        0.000000        0.000001        0.000083
       469         -0.82263243        0.298921        0.000000        0.000000        0.017835        0.281086
       470         -0.82264104        0.304858        0.000000        0.000000        0.016501        0.288357
       471         -0.82264104        0.304823        0.000000        0.000000        0.016508        0.288315
       472         -0.82264104        0.304822        0.000000        0.000000        0.016508        0.288313
       473         -0.82264104        0.021731        0.000000        0.000000        0.016508        0.005222
       474         -0.81697316        0.005199        0.000000        0.000000        0.000001        0.005198
       475         -0.82263243        0.279237        0.000000        0.000000        0.017835        0.261401
       476         -0.82264104        0.285048        0.000000        0.000000        0.016501        0.268547
       477         -0.82264104        0.285013        0.000000        0.000000        0.016508        0.268505
       478         -0.82264104        0.285012        0.000000        0.000000        0.016508        0.268504
       479         -0.82264104        0.016513        0.000000        0.000000        0.016508        0.000005
       480         -0.81697316        0.000006        0.000000        0.000000        0.000001        0.000005
       481         -0.82263243        0.038893        0.000000        0.000000        0.017835        0.021057
       482         -0.82264104        0.038431        0.000000        0.000000        0.016501        0.021930
       483         -0.82264104        0.038433        0.000000        0.000000        0.016508        0.021925
       484         -0.82264104        0.038433        0.000000        0.000000        0.016508        0.021925
       485         -0.82264104        0.016521        0.000000        0.000000        0.016508        0.000013
       486         -0.81697316        0.000014        0.000000        0.000000        0.000001        0.000013
       487         -0.82263243        0.072091        0.000000        0.000000        0.017835        0.054255
       488         -0.82264104        0.072914        0.000000        0.000000        0.016501        0.056414
       489         -0.82264104        0.072909        0.000000        0.000000        0.016508        0.056401
       490         -0.82264104        0.072909        0.000000        0.000000        0.016508        0.056400
       491         -0.82264104        0.016722        0.000000        0.000000        0.016508        0.000214
       492         -0.81697316        0.000214        0.000000        0.000000        0.000001        0.000213
       493         -0.82263243        0.467118        0.000000        0.000000        0.017835        0.449283
       494         -0.82264104        0.467879        0.000000        0.000000        0.016501        0.451379
       495         -0.82264104        0.467875        0.000000        0.000000        0.016508        0.451367
       496         -0.82264104        0.467875        0.000000        0.000000        0.016508        0.451367
       497         -0.82264104        0.016530        0.000000        0.000000        0.016508        0.000021
       498         -0.81697316        0.000023        0.000000        0.000000        0.000001        0.000021
       499         -0.82263243        0.106724        0.000000        0.000000        0.017835        0.088889
       500         -0.82264104        0.108764        0.000000        0.000000        0.016501        0.092263
       501         -0.82264104        0.108751        0.000000        0.000000        0.016508        0.092243
       502         -0.82264104        0.108751        0.000000        0.000000        0.016508        0.092242
       503         -0.82264104        0.016508        0.000000        0.000000        0.016508        0.000000
       504         -0.81697316        0.000001        0.000000        0.000000        0.000001        0.000000
       505         -0.82263243        0.018237        0.000000        0.000000        0.017835        0.000402
       506         -0.82264104        0.016919        0.000000        0.000000        0.016501        0.000419
       507         -0.82264104        0.016927        0.000000        0.000000        0.016508        0.000419
       508         -0.82264104        0.016927        0.000000        0.000000        0.016508        0.000419
       509         -0.81697316        0.000418        0.000000        0.000000        0.000001        0.000417
       510         -0.82263243        0.387574        0.000000        0.000000        0.017835        0.369739
       511         -0.82264104        0.379268        0.000000        0.000000        0.016501        0.362767
       512         -0.82264104        0.379316        0.000000        0.000000        0.016508        0.362808
       513         -0.82264104        0.379317        0.000000        0.000000        0.016508        0.362809
       514         -0.82264104        0.016508        0.000000        0.000000        0.016508        0.000000
       515         -0.81697316        0.000001        0.000000        0.000000        0.000001        0.000000
       516         -0.82263243        0.017886        0.000000        0.000000        0.017836        0.000050
       517         -0.82264104        0.016549        0.000000        0.000000        0.016501        0.000048
       518         -0.82264104        0.016556        0.000000        0.000000        0.016508        0.000048
       519         -0.82264104        0.016557        0.000000        0.000000        0.016508        0.000048
       520         -0.81697316        0.000049        0.000000        0.000000        0.000001        0.000048
       521         -0.82263243        0.192426        0.000000        0.000000        0.017836        0.174590
       522         -0.82264104        0.185285        0.000000        0.000000        0.016501        0.168784
       523         -0.82264104        0.185325        0.000000        0.000000        0.016508        0.168817
       524         -0.82264104        0.185326        0.000000        0.000000        0.016508        0.168818
       525         -0.82264104        0.016523        0.000000        0.000000        0.016508        0.000015
       526         -0.81697316        0.000016        0.000000        0.000000        0.000001        0.000015
       527         -0.82263243        0.077057        0.000000        0.000000        0.017835        0.059221
       528         -0.82264104        0.073398        0.000000        0.000000        0.016501        0.056898
       529         -0.82264104        0.073419        0.000000        0.000000        0.016508        0.056911
       530         -0.82264104        0.073420        0.000000        0.000000        0.016508        0.056911
       531         -0.82264104        0.016644        0.000000        0.000000        0.016508        0.000136
       532         -0.81697316        0.000137        0.000000        0.000000        0.000001        0.000135
       533         -0.82263243        0.386626        0.000000        0.000000        0.017835        0.368791
       534         -0.82264104        0.378301        0.000000        0.000000        0.016501        0.361800
       535         -0.82264104        0.378349        0.000000        0.000000        0.016508        0.361841
       536         -0.82264104        0.378351        0.000000        0.000000        0.016508        0.361842
       537         -0.82264104        0.016508        0.000000        0.000000        0.016508        0.000000
       538         -0.81697316        0.000001        0.000000        0.000000        0.000001        0.000000
       539         -0.82263243        0.017872        0.000000        0.000000        0.017836        0.000036
       540         -0.82264104        0.016535        0.000000        0.000000        0.016501        0.000035
       541         -0.82264104        0.016543        0.000000        0.000000        0.016508        0.000035
       542         -0.82264104        0.016543        0.000000        0.000000        0.016508        0.000035
       543         -0.81697316        0.000036        0.000000        0.000000        0.000001        0.000034
       544         -0.82263243        0.148291        0.000000        0.000000        0.017835        0.130455
       545         -0.82264104        0.142303        0.000000        0.000000        0.016501        0.125803
       546         -0.82264104        0.142337        0.000000        0.000000        0.016508        0.125829
       547         -0.82264104        0.142338        0.000000        0.000000        0.016508        0.125830
       548         -0.82264104        0.016509        0.000000        0.000000        0.016508        0.000001
       549         -0.81697316        0.000002        0.000000        0.000000        0.000001        0.000001
       550         -0.82263243        0.022595        0.000000        0.000000        0.017835        0.004760
       551         -0.82264104        0.021062        0.000000        0.000000        0.016501        0.004561
       552         -0.82264104        0.021071        0.000000        0.000000        0.016508        0.004563
       553         -0.82264104        0.021071        0.000000        0.000000        0.016508        0.004563
       554         -0.81697316        0.004543        0.000000        0.000000        0.000001        0.004541
       555         -0.82263243        0.034400        0.000000        0.000000        0.017835        0.016565
       556         -0.82264104        0.032383        0.000000        0.000000        0.016501        0.015882
       557         -0.82264104        0.032394        0.000000        0.000000        0.016508        0.015886
       558         -0.82264104        0.032395        0.000000        0.000000        0.016508        0.015886
       559         -0.81697316        0.015813        0.000000        0.000000        0.000001        0.015812
       560         -0.82263243        0.117108        0.000000        0.000000        0.017835        0.099273
       561         -0.82264104        0.112073        0.000000        0.000000        0.016501        0.095572
       562         -0.82264104        0.112101        0.000000        0.000000        0.016508        0.095593
       563         -0.82264104        0.112102        0.000000        0.000000        0.016508        0.095594
       564         -0.82264104        0.017485        0.000000        0.000000        0.016508        0.000977
       565         -0.81697316        0.000974        0.000000        0.000000        0.000001        0.000973
       566         -0.82263243        0.027382        0.000000        0.000000        0.017835        0.009546
       567         -0.82264104        0.026448        0.000000        0.000000        0.016501        0.009948
       568         -0.82264104        0.026453        0.000000        0.000000        0.016508        0.009945
       569         -0.82264104        0.026453        0.000000        0.000000        0.016508        0.009945
       570         -0.81697316        0.009900        0.000000        0.000000        0.000001        0.009899
       571         -0.82263243        0.097379        0.000000        0.000000        0.017835        0.079544
       572         -0.82264104        0.093002        0.000000        0.000000        0.016501        0.076501
       573         -0.82264104        0.093027        0.000000        0.000000        0.016508        0.076518
       574         -0.82264104        0.093027        0.000000        0.000000        0.016508        0.076519
       575         -0.82264104        0.016919        0.000000        0.000000        0.016508        0.000411
       576         -0.81697316        0.000410        0.000000        0.000000        0.000001        0.000409
       577         -0.82263243        0.413979        0.000000        0.000000        0.017836        0.396143
       578         -0.82264104        0.418517        0.000000        0.000000        0.016501        0.402017
       579         -0.82264104        0.418491        0.000000        0.000000        0.016508        0.401983
       580         -0.82264104        0.418490        0.000000        0.000000        0.016508        0.401982
       581         -0.82264104        0.016527        0.000000        0.000000        0.016508        0.000019
       582         -0.81697316        0.000020        0.000000        0.000000        0.000001        0.000019
       583         -0.82263243        0.097978        0.000000        0.000000        0.017835        0.080143
       584         -0.82264104        0.099724        0.000000        0.000000        0.016501        0.083223
       585         -0.82264104        0.099713        0.000000        0.000000        0.016508        0.083204
       586         -0.82264104        0.099712        0.000000        0.000000        0.016508        0.083204
       587         -0.82264104        0.017318        0.000000        0.000000        0.016508        0.000810
       588         -0.81697316        0.000807        0.000000        0.000000        0.000001        0.000806
       589         -0.82263243        0.065679        0.000000        0.000000        0.017835        0.047844
       590         -0.82264104        0.062441        0.000000        0.000000        0.016501        0.045941
       591         -0.82264104        0.062460        0.000000        0.000000        0.016508        0.045951
       592         -0.82264104        0.062460        0.000000        0.000000        0.016508        0.045952
       593         -0.82264104        0.016570        0.000000        0.000000        0.016508        0.000062
       594         -0.81697316        0.000063        0.000000        0.000000        0.000001        0.000062
       595         -0.82263243        0.232362        0.000000        0.000000        0.017835        0.214526
       596         -0.82264104        0.224401        0.000000        0.000000        0.016501        0.207900
       597         -0.82264104        0.224446        0.000000        0.000000        0.016508        0.207938
       598         -0.82264104        0.224448        0.000000        0.000000        0.016508        0.207939
       599         -0.82264104        0.016584        0.000000        0.000000        0.016508        0.000076
       600         -0.81697316        0.000077        0.000000        0.000000        0.000001        0.000075
       601         -0.82263243        0.268145        0.000000        0.000000        0.017835        0.250309
       602         -0.82264104        0.259652        0.000000        0.000000        0.016501        0.243152
       603         -0.82264104        0.259701        0.000000        0.000000        0.016508        0.243193
       604         -0.82264104        0.259702        0.000000        0.000000        0.016508        0.243194
       605         -0.82264104        0.016676        0.000000        0.000000        0.016508        0.000167
       606         -0.81697316        0.000168        0.000000        0.000000        0.000001        0.000167
       607         -0.82263243        0.426210        0.000000        0.000000        0.017835        0.408374
       608         -0.82264104        0.419063        0.000000        0.000000        0.016501        0.402562
       609         -0.82264104        0.419105        0.000000        0.000000        0.016508        0.402597
       610         -0.82264104        0.419106        0.000000        0.000000        0.016508        0.402598
       611         -0.82264104        0.016509        0.000000        0.000000        0.016508        0.000000
       612         -0.81697316        0.000002        0.000000        0.000000        0.000001        0.000000
       613         -0.82263243        0.019066        0.000000        0.000000        0.017836        0.001230
       614         -0.82264104        0.017680        0.000000        0.000000        0.016501        0.001179
       615         -0.82264104        0.017687        0.000000        0.000000        0.016508        0.001179
       616         -0.82264104        0.017687        0.000000        0.000000        0.016508        0.001179
       617         -0.81697316        0.001175        0.000000        0.000000        0.000001        0.001174
       618         -0.82263243        0.028040        0.000000        0.000000        0.017835        0.010205
       619         -0.82264104        0.027134        0.000000        0.000000        0.016501        0.010633
       620         -0.82264104        0.027139        0.000000        0.000000        0.016508        0.010631
       621         -0.82264104        0.027139        0.000000        0.000000        0.016508        0.010630
       622         -0.81697316        0.010582        0.000000        0.000000        0.000001        0.010581
       623         -0.82263243        0.236576        0.000000        0.000000        0.017835        0.218741
       624         -0.82264104        0.228542        0.000000        0.000000        0.016501        0.212041
       625         -0.82264104        0.228588        0.000000        0.000000        0.016508        0.212080
       626         -0.82264104        0.228589        0.000000        0.000000        0.016508        0.212081
       627         -0.82264104        0.016595        0.000000        0.000000        0.016508        0.000087
       628         -0.81697316        0.000088        0.000000        0.000000        0.000001        0.000086
       629         -0.82263243        0.294849        0.000000        0.000000        0.017835        0.277013
[...]
       859         -0.82263243        0.018302        0.000000        0.000000        0.017835        0.000467
       860         -0.82264104        0.016987        0.000000        0.000000        0.016501        0.000487
       861         -0.82264104        0.016995        0.000000        0.000000        0.016508        0.000487
       862         -0.82264104        0.016995        0.000000        0.000000        0.016508        0.000487
       863         -0.81697316        0.000486        0.000000        0.000000        0.000001        0.000484
       864         -0.82263243        0.324875        0.000000        0.000000        0.017835        0.307040
       865         -0.82264104        0.316022        0.000000        0.000000        0.016501        0.299521
       866         -0.82264104        0.316073        0.000000        0.000000        0.016508        0.299565
       867         -0.82264104        0.316074        0.000000        0.000000        0.016508        0.299566
       868         -0.82264104        0.016512        0.000000        0.000000        0.016508        0.000004
       869         -0.81697316        0.000005        0.000000        0.000000        0.000001        0.000004
       870         -0.82263243        0.033665        0.000000        0.000000        0.017835        0.015830
       871         -0.82264104        0.031678        0.000000        0.000000        0.016501        0.015177
       872         -0.82264104        0.031689        0.000000        0.000000        0.016508        0.015181
       873         -0.82264104        0.031689        0.000000        0.000000        0.016508        0.015181
       874         -0.81697316        0.015111        0.000000        0.000000        0.000001        0.015110
       875         -0.82263243        0.232818        0.000000        0.000000        0.017835        0.214982
       876         -0.82264104        0.224848        0.000000        0.000000        0.016501        0.208348
       877         -0.82264104        0.224894        0.000000        0.000000        0.016508        0.208386
       878         -0.82264104        0.224895        0.000000        0.000000        0.016508        0.208387
       879         -0.82264104        0.016585        0.000000        0.000000        0.016508        0.000077
       880         -0.81697316        0.000078        0.000000        0.000000        0.000001        0.000076
       881         -0.82263243        0.271037        0.000000        0.000000        0.017835        0.253202
       882         -0.82264104        0.262511        0.000000        0.000000        0.016501        0.246011
       883         -0.82264104        0.262560        0.000000        0.000000        0.016508        0.246052
       884         -0.82264104        0.262562        0.000000        0.000000        0.016508        0.246053
       885         -0.82264104        0.016676        0.000000        0.000000        0.016508        0.000168
       886         -0.81697316        0.000168        0.000000        0.000000        0.000001        0.000167
       887         -0.82263243        0.426712        0.000000        0.000000        0.017835        0.408876
       888         -0.82264104        0.419586        0.000000        0.000000        0.016501        0.403085
       889         -0.82264104        0.419628        0.000000        0.000000        0.016508        0.403120
       890         -0.82264104        0.419629        0.000000        0.000000        0.016508        0.403121
       891         -0.82264104        0.016509        0.000000        0.000000        0.016508        0.000000
       892         -0.81697316        0.000002        0.000000        0.000000        0.000001        0.000000
       893         -0.82263243        0.019439        0.000000        0.000000        0.017836        0.001603
       894         -0.82264104        0.018037        0.000000        0.000000        0.016501        0.001536
       895         -0.82264104        0.018045        0.000000        0.000000        0.016508        0.001537
       896         -0.82264104        0.018045        0.000000        0.000000        0.016508        0.001537
       897         -0.81697316        0.001531        0.000000        0.000000        0.000001        0.001530
       898         -0.82263243        0.170282        0.000000        0.000000        0.017835        0.152447
       899         -0.82264104        0.174194        0.000000        0.000000        0.016501        0.157693
       900         -0.82264104        0.174170        0.000000        0.000000        0.016508        0.157661
       901         -0.82264104        0.174169        0.000000        0.000000        0.016508        0.157661
       902         -0.82264104        0.016520        0.000000        0.000000        0.016508        0.000012
       903         -0.81697316        0.000013        0.000000        0.000000        0.000001        0.000012
       904         -0.82263243        0.068937        0.000000        0.000000        0.017835        0.051102
       905         -0.82264104        0.069643        0.000000        0.000000        0.016501        0.053143
       906         -0.82264104        0.069639        0.000000        0.000000        0.016508        0.053130
       907         -0.82264104        0.069638        0.000000        0.000000        0.016508        0.053130
       908         -0.82264104        0.016684        0.000000        0.000000        0.016508        0.000176
       909         -0.81697316        0.000177        0.000000        0.000000        0.000001        0.000175
       910         -0.82263243        0.444307        0.000000        0.000000        0.017835        0.426472
       911         -0.82264104        0.447339        0.000000        0.000000        0.016501        0.430839
       912         -0.82264104        0.447322        0.000000        0.000000        0.016508        0.430814
       913         -0.82264104        0.447321        0.000000        0.000000        0.016508        0.430813
       914         -0.82264104        0.023163        0.000000        0.000000        0.016508        0.006655
       915         -0.81697316        0.006625        0.000000        0.000000        0.000001        0.006624
       916         -0.82263243        0.454851        0.000000        0.000000        0.017836        0.437016
       917         -0.82264104        0.449452        0.000000        0.000000        0.016501        0.432951
       918         -0.82264104        0.449484        0.000000        0.000000        0.016508        0.432976
       919         -0.82264104        0.449485        0.000000        0.000000        0.016508        0.432977
       920         -0.82264104        0.019036        0.000000        0.000000        0.016508        0.002527
       921         -0.81697316        0.002517        0.000000        0.000000        0.000001        0.002516
       922         -0.82263243        0.469078        0.000000        0.000000        0.017835        0.451243
       923         -0.82264104        0.465432        0.000000        0.000000        0.016501        0.448931
       924         -0.82264104        0.465454        0.000000        0.000000        0.016508        0.448946
       925         -0.82264104        0.465454        0.000000        0.000000        0.016508        0.448946
       926         -0.82264104        0.035866        0.000000        0.000000        0.016508        0.019358
       927         -0.82264104        0.016511        0.000000        0.000000        0.016508        0.000002
       928         -0.81697316        0.000004        0.000000        0.000000        0.000001        0.000002
       929         -0.82263243        0.027997        0.000000        0.000000        0.017835        0.010162
       930         -0.82264104        0.026241        0.000000        0.000000        0.016501        0.009740
       931         -0.82264104        0.026251        0.000000        0.000000        0.016508        0.009743
       932         -0.82264104        0.026251        0.000000        0.000000        0.016508        0.009743
       933         -0.81697316        0.009699        0.000000        0.000000        0.000001        0.009697
       934         -0.82263243        0.018446        0.000000        0.000000        0.017835        0.000610
       935         -0.82264104        0.017137        0.000000        0.000000        0.016501        0.000636
       936         -0.82264104        0.017144        0.000000        0.000000        0.016508        0.000636
       937         -0.82264104        0.017144        0.000000        0.000000        0.016508        0.000636
       938         -0.81697316        0.000634        0.000000        0.000000        0.000001        0.000633
       939         -0.82263243        0.184668        0.000000        0.000000        0.017835        0.166833
       940         -0.82264104        0.177713        0.000000        0.000000        0.016501        0.161213
       941         -0.82264104        0.177753        0.000000        0.000000        0.016508        0.161245
       942         -0.82264104        0.177754        0.000000        0.000000        0.016508        0.161246
       943         -0.82264104        0.016518        0.000000        0.000000        0.016508        0.000010
       944         -0.81697316        0.000011        0.000000        0.000000        0.000001        0.000010
       945         -0.82263243        0.058800        0.000000        0.000000        0.017836        0.040964
       946         -0.82264104        0.055822        0.000000        0.000000        0.016501        0.039321
       947         -0.82264104        0.055839        0.000000        0.000000        0.016508        0.039331
       948         -0.82264104        0.055839        0.000000        0.000000        0.016508        0.039331
       949         -0.82264104        0.016543        0.000000        0.000000        0.016508        0.000035
       950         -0.81697316        0.000036        0.000000        0.000000        0.000001        0.000035
       951         -0.82263243        0.150323        0.000000        0.000000        0.017835        0.132487
       952         -0.82264104        0.144276        0.000000        0.000000        0.016501        0.127776
       953         -0.82264104        0.144311        0.000000        0.000000        0.016508        0.127803
       954         -0.82264104        0.144312        0.000000        0.000000        0.016508        0.127803
       955         -0.82264104        0.016510        0.000000        0.000000        0.016508        0.000001
       956         -0.81697316        0.000003        0.000000        0.000000        0.000001        0.000001
       957         -0.82263243        0.023328        0.000000        0.000000        0.017835        0.005493
       958         -0.82264104        0.021764        0.000000        0.000000        0.016501        0.005264
       959         -0.82264104        0.021773        0.000000        0.000000        0.016508        0.005265
       960         -0.82264104        0.021773        0.000000        0.000000        0.016508        0.005265
       961         -0.81697316        0.005242        0.000000        0.000000        0.000001        0.005241
       962         -0.82263243        0.194894        0.000000        0.000000        0.017836        0.177059
       963         -0.82264104        0.187696        0.000000        0.000000        0.016501        0.171196
       964         -0.82264104        0.187737        0.000000        0.000000        0.016508        0.171229
       965         -0.82264104        0.187738        0.000000        0.000000        0.016508        0.171230
       966         -0.82264104        0.016525        0.000000        0.000000        0.016508        0.000017
       967         -0.81697316        0.000018        0.000000        0.000000        0.000001        0.000017
       968         -0.82263243        0.084045        0.000000        0.000000        0.017835        0.066209
       969         -0.82264104        0.080135        0.000000        0.000000        0.016501        0.063634
       970         -0.82264104        0.080157        0.000000        0.000000        0.016508        0.063649
       971         -0.82264104        0.080157        0.000000        0.000000        0.016508        0.063649
       972         -0.82264104        0.016714        0.000000        0.000000        0.016508        0.000205
       973         -0.81697316        0.000206        0.000000        0.000000        0.000001        0.000204
       974         -0.82263243        0.456825        0.000000        0.000000        0.017835        0.438990
       975         -0.82264104        0.451606        0.000000        0.000000        0.016501        0.435106
       976         -0.82264104        0.451637        0.000000        0.000000        0.016508        0.435129
       977         -0.82264104        0.451638        0.000000        0.000000        0.016508        0.435130
       978         -0.82264104        0.021492        0.000000        0.000000        0.016508        0.004984
       979         -0.81697316        0.004962        0.000000        0.000000        0.000001        0.004961
       980         -0.82263243        0.116720        0.000000        0.000000        0.017835        0.098884
       981         -0.82264104        0.111697        0.000000        0.000000        0.016501        0.095196
       982         -0.82264104        0.111725        0.000000        0.000000        0.016508        0.095217
       983         -0.82264104        0.111726        0.000000        0.000000        0.016508        0.095218
       984         -0.82264104        0.017470        0.000000        0.000000        0.016508        0.000962
       985         -0.81697316        0.000959        0.000000        0.000000        0.000001        0.000957
       986         -0.82263243        0.030684        0.000000        0.000000        0.017835        0.012849
       987         -0.82264104        0.029887        0.000000        0.000000        0.016501        0.013386
       988         -0.82264104        0.029891        0.000000        0.000000        0.016508        0.013383
       989         -0.82264104        0.029891        0.000000        0.000000        0.016508        0.013383
       990         -0.81697316        0.013322        0.000000        0.000000        0.000001        0.013321
       991         -0.82263243        0.392403        0.000000        0.000000        0.017835        0.374567
       992         -0.82264104        0.397586        0.000000        0.000000        0.016501        0.381085
       993         -0.82264104        0.397555        0.000000        0.000000        0.016508        0.381047
       994         -0.82264104        0.397554        0.000000        0.000000        0.016508        0.381046
       995         -0.82264104        0.016509        0.000000        0.000000        0.016508        0.000001
       996         -0.81697316        0.000002        0.000000        0.000000        0.000001        0.000001
       997         -0.82263243        0.021366        0.000000        0.000000        0.017835        0.003531
       998         -0.82264104        0.020181        0.000000        0.000000        0.016501        0.003680
       999         -0.82264104        0.020187        0.000000        0.000000        0.016508        0.003679
      1000         -0.82264104        0.020188        0.000000        0.000000        0.016508        0.003679

 Failed to Converge

 WFN1                     :
 --------------------------
 Total WFN1 energy =          -0.8226410412
 1-Electron energy =          -0.2325004342
 2-Electron energy =           0.0000000000
 Entropy energy    =          -0.5901406069
 Nuclear energy    =           0.0000000000

 conventional Hartree-Fock:
 --------------------------
 Total SCF energy  =          -0.7314569499
 2-Electron energy =           0.0911840912


      Natural orbital occupation numbers

          Alpha     Beta
         ------   ------
     1   0.7230   0.0000
     2   0.2770   0.0000

                            WFN1 Final orbital energies
                            ---------------------------

              alpha       beta  
            --------    --------
       1      0.3675    -10.4337
       2      0.4580    -11.3852

                  WFN1 Final alpha Correlation Function Analysis
                  ----------------------------------------------


 global array: Ca[1:2,1:2],  handle: -988 

            1           2  
       ----------- -----------
   1       0.85027     0.52635
   2      -0.52635     0.85027

                   WFN1 Final beta Correlation Function Analysis
                   ---------------------------------------------


 global array: Cb[1:2,1:2],  handle: -987 

            1           2  
       ----------- -----------
   1      -0.04494    -0.99899
   2       0.99899    -0.04494

                     WFN1 Final Alpha Natural Orbital Analysis
                     -----------------------------------------

 Vector    1  Occ=7.229551D-01  E= 3.674647D-01
              MO Center=  0.0D+00,  0.0D+00,  0.0D+00, r^2= 8.0D-01
   Bfn.  Coefficient  Atom+Function         Bfn.  Coefficient  Atom+Function  
  ----- ------------  ---------------      ----- ------------  ---------------
     2      0.665449  1 H  s                  1      0.427430  1 H  s          

 Vector    2  Occ=2.770449D-01  E= 4.579864D-01
              MO Center=  0.0D+00,  0.0D+00,  0.0D+00, r^2= 1.2D+00
   Bfn.  Coefficient  Atom+Function         Bfn.  Coefficient  Atom+Function  
  ----- ------------  ---------------      ----- ------------  ---------------
     1      1.257798  1 H  s                  2     -1.149752  1 H  s          


                     WFN1 Final Beta Natural Orbital Analysis
                     ----------------------------------------

 Vector    1  Occ=0.000000D+00  E=-1.043374D+01
              MO Center=  0.0D+00,  0.0D+00,  0.0D+00, r^2= 8.0D-01
   Bfn.  Coefficient  Atom+Function         Bfn.  Coefficient  Atom+Function  
  ----- ------------  ---------------      ----- ------------  ---------------
     2      0.665449  1 H  s                  1      0.427430  1 H  s          

 Vector    2  Occ=0.000000D+00  E=-1.138523D+01
              MO Center=  0.0D+00,  0.0D+00,  0.0D+00, r^2= 1.2D+00
   Bfn.  Coefficient  Atom+Function         Bfn.  Coefficient  Atom+Function  
  ----- ------------  ---------------      ----- ------------  ---------------
     1      1.257798  1 H  s                  2     -1.149752  1 H  s          

 ------------------------------------------------------------------------
 wfn1 energy failed                                                                                 0
 ------------------------------------------------------------------------
 ------------------------------------------------------------------------
  current input line : 
    25: task wfn1 energy
 ------------------------------------------------------------------------
 ------------------------------------------------------------------------
 This type of error is most commonly associated with calculations not reaching convergence criteria
 ------------------------------------------------------------------------
 For more information see the NWChem manual at http://www.nwchem-sw.org/index.php/NWChem_Documentation


 For further details see manual section:                                                                                                                                                                                                                                                                
