 argument  1 = wfn1_h_vx.nw



============================== echo of input deck ==============================
echo
start wfn1_h_dat

geometry
  h 0 0 0
end
basis
  * library 6-31g**
end

set wfn1:corr_expr "wfn1_vx"
set wfn1:print_error T
set wfn1:nopen  1
set wfn1:maxit  50
set wfn1:t_bath 0.0

task wfn1 energy

set wfn1:corr_expr "wfn1_vx"
set wfn1:print_error T
set wfn1:nopen  1
set wfn1:maxit  1000
set wfn1:t_bath 0.6

task wfn1 energy
================================================================================


                                         
                                         


              Northwest Computational Chemistry Package (NWChem) 6.8
              ------------------------------------------------------


                    Environmental Molecular Sciences Laboratory
                       Pacific Northwest National Laboratory
                                Richland, WA 99352

                              Copyright (c) 1994-2015
                       Pacific Northwest National Laboratory
                            Battelle Memorial Institute

             NWChem is an open-source computational chemistry package
                        distributed under the terms of the
                      Educational Community License (ECL) 2.0
             A copy of the license is included with this distribution
                              in the LICENSE.TXT file

                                  ACKNOWLEDGMENT
                                  --------------

            This software and its documentation were developed at the
            EMSL at Pacific Northwest National Laboratory, a multiprogram
            national laboratory, operated for the U.S. Department of Energy
            by Battelle under Contract Number DE-AC05-76RL01830. Support
            for this work was provided by the Department of Energy Office
            of Biological and Environmental Research, Office of Basic
            Energy Sciences, and the Office of Advanced Scientific Computing.


           Job information
           ---------------

    hostname        = erato
    program         = ../../../bin/LINUX64/nwchem
    date            = Sun May  6 20:52:04 2018

    compiled        = Sun_May_06_19:29:18_2018
    source          = /home/hvandam/nwchem-1-wfn1
    nwchem branch   = Development
    nwchem revision = nwchem_on_git-51-gcccac83fc2a4226c5c513281d68ab773edcb0a0d
    ga revision     = nwchem_on_git-43-g1da910a
    use scalapack   = F
    input           = wfn1_h_vx.nw
    prefix          = wfn1_h_dat.
    data base       = ./wfn1_h_dat.db
    status          = startup
    nproc           =        1
    time left       =     -1s



           Memory information
           ------------------

    heap     =   13107198 doubles =    100.0 Mbytes
    stack    =   13107195 doubles =    100.0 Mbytes
    global   =   26214400 doubles =    200.0 Mbytes (distinct from heap & stack)
    total    =   52428793 doubles =    400.0 Mbytes
    verify   = yes
    hardfail = no 


           Directory information
           ---------------------

  0 permanent = .
  0 scratch   = .




                                NWChem Input Module
                                -------------------



 Scaling coordinates for geometry "geometry" by  1.889725989
 (inverse scale =  0.529177249)



                             Geometry "geometry" -> ""
                             -------------------------

 Output coordinates in angstroms (scale by  1.889725989 to convert to a.u.)

  No.       Tag          Charge          X              Y              Z
 ---- ---------------- ---------- -------------- -------------- --------------
    1 h                    1.0000     0.00000000     0.00000000     0.00000000

      Atomic Mass 
      ----------- 

      h                  1.007825


 Effective nuclear repulsion energy (a.u.)       0.0000000000

            Nuclear Dipole moment (a.u.) 
            ----------------------------
        X                 Y               Z
 ---------------- ---------------- ----------------
     0.0000000000     0.0000000000     0.0000000000


            XYZ format geometry
            -------------------
     1
 geometry
 h                     0.00000000     0.00000000     0.00000000



 Summary of "ao basis" -> "" (cartesian)
 ------------------------------------------------------------------------------
       Tag                 Description            Shells   Functions and Types
 ---------------- ------------------------------  ------  ---------------------
 *                          6-31g**                   on all atoms 



                                NWChem WFN1 Module
                                ------------------


                      Basis "ao basis" -> "ao basis" (cartesian)
                      -----
  h (Hydrogen)
  ------------
            Exponent  Coefficients 
       -------------- ---------------------------------------------------------
  1 S  1.87311370E+01  0.033495
  1 S  2.82539370E+00  0.234727
  1 S  6.40121700E-01  0.813757

  2 S  1.61277800E-01  1.000000

  3 P  1.10000000E+00  1.000000



 Summary of "ao basis" -> "ao basis" (cartesian)
 ------------------------------------------------------------------------------
       Tag                 Description            Shells   Functions and Types
 ---------------- ------------------------------  ------  ---------------------
 h                          6-31g**                  3        5   2s1p



      Superposition of Atomic Density Guess
      -------------------------------------

 Sum of atomic energies:          -0.49823254

      Non-variational initial energy
      ------------------------------

 Total energy =      -0.498233
 1-e energy   =      -0.498233
 2-e energy   =       0.000000
 HOMO         =      -0.498233
 LUMO         =       0.460935

 iteration              energy           error          err Na          err Nb          err Ca          err Cb
 ---------              ------           -----          ------          ------          ------          ------
         0         -0.49823291        0.000000        0.000000        0.000000        0.000000        0.000000

 Reached Convergence

 WFN1                     :
 --------------------------
 Total WFN1 energy =          -0.4982329107
 1-Electron energy =          -0.4982329107
 2-Electron energy =           0.0000000000
 Entropy energy    =           0.0000000000
 Nuclear energy    =           0.0000000000

 conventional Hartree-Fock:
 --------------------------
 Total SCF energy  =          -0.4982329107
 2-Electron energy =           0.0000000000

                WFN1 Final Natural orbital energies and occupations
                ---------------------------------------------------

              Alpha       Beta            Alpha       Beta  
            --------    --------        --------    --------
       1     -0.4982      0.0000          1.0000      0.0000
       2      0.0000      0.0000          0.0000      0.0000
       3      0.0000      0.0000          0.0000      0.0000
       4      0.0000      0.0000          0.0000      0.0000
       5      0.0000      0.0000          0.0000      0.0000

             WFN1 Final Correlation function energies and occupations
             --------------------------------------------------------

              Alpha       Beta            Alpha       Beta  
            --------    --------        --------    --------
       1     -0.4982      0.1305          1.0000      0.0000
       2      0.9162      1.0726          0.0000      0.0000
       3      2.2309      2.3659          0.0000      0.0000
       4      2.2309      2.3659          0.0000      0.0000
       5      2.2309      2.3659          0.0000      0.0000

                WFN1 Final alpha-alpha 2-matrix occupation numbers
                --------------------------------------------------


 global array: g_momo1[1:5,1:5],  handle: -994 

            1           2           3           4           5  
       ----------- ----------- ----------- ----------- -----------
   1       0.00000     0.00000     0.00000     0.00000     0.00000
   2       0.00000     0.00000     0.00000     0.00000     0.00000
   3       0.00000     0.00000     0.00000     0.00000     0.00000
   4       0.00000     0.00000     0.00000     0.00000     0.00000
   5       0.00000     0.00000     0.00000     0.00000     0.00000

                 WFN1 Final beta-beta 2-matrix occupation numbers
                 ------------------------------------------------


 global array: g_momo2[1:5,1:5],  handle: -993 

            1           2           3           4           5  
       ----------- ----------- ----------- ----------- -----------
   1       0.00000     0.00000     0.00000     0.00000     0.00000
   2       0.00000     0.00000     0.00000     0.00000     0.00000
   3       0.00000     0.00000     0.00000     0.00000     0.00000
   4       0.00000     0.00000     0.00000     0.00000     0.00000
   5       0.00000     0.00000     0.00000     0.00000     0.00000

                  WFN1 Final alpha Correlation Function Analysis
                  ----------------------------------------------


 global array: Ca[1:5,1:5],  handle: -988 

            1           2           3           4           5  
       ----------- ----------- ----------- ----------- -----------
   1       1.00000     0.00000     0.00000     0.00000     0.00000
   2       0.00000     1.00000     0.00000     0.00000     0.00000
   3       0.00000     0.00000     1.00000     0.00000     0.00000
   4       0.00000     0.00000     0.00000     1.00000     0.00000
   5       0.00000     0.00000     0.00000     0.00000     1.00000

                   WFN1 Final beta Correlation Function Analysis
                   ---------------------------------------------


 global array: Cb[1:5,1:5],  handle: -987 

            1           2           3           4           5  
       ----------- ----------- ----------- ----------- -----------
   1       1.00000     0.00000     0.00000     0.00000     0.00000
   2       0.00000     1.00000     0.00000     0.00000     0.00000
   3       0.00000     0.00000     1.00000     0.00000     0.00000
   4       0.00000     0.00000     0.00000     1.00000     0.00000
   5       0.00000     0.00000     0.00000     0.00000     1.00000

                     WFN1 Final Alpha Natural Orbital Analysis
                     -----------------------------------------

 Vector    1  Occ=1.000000D+00  E=-4.982329D-01
              MO Center=  0.0D+00,  0.0D+00,  0.0D+00, r^2= 8.0D-01
   Bfn.  Coefficient  Atom+Function         Bfn.  Coefficient  Atom+Function  
  ----- ------------  ---------------      ----- ------------  ---------------
     2      0.665449  1 H  s                  1      0.427430  1 H  s          

 Vector    2  Occ=0.000000D+00  E= 0.000000D+00
              MO Center=  0.0D+00,  0.0D+00,  0.0D+00, r^2= 1.2D+00
   Bfn.  Coefficient  Atom+Function         Bfn.  Coefficient  Atom+Function  
  ----- ------------  ---------------      ----- ------------  ---------------
     1      1.257798  1 H  s                  2     -1.149752  1 H  s          

 Vector    3  Occ=0.000000D+00  E= 0.000000D+00
              MO Center=  0.0D+00,  0.0D+00,  0.0D+00, r^2= 3.2D-01
   Bfn.  Coefficient  Atom+Function         Bfn.  Coefficient  Atom+Function  
  ----- ------------  ---------------      ----- ------------  ---------------
     5      1.000000  1 H  pz         

 Vector    4  Occ=0.000000D+00  E= 0.000000D+00
              MO Center=  0.0D+00,  0.0D+00,  0.0D+00, r^2= 3.2D-01
   Bfn.  Coefficient  Atom+Function         Bfn.  Coefficient  Atom+Function  
  ----- ------------  ---------------      ----- ------------  ---------------
     4      1.000000  1 H  py         

 Vector    5  Occ=0.000000D+00  E= 0.000000D+00
              MO Center=  0.0D+00,  0.0D+00,  0.0D+00, r^2= 3.2D-01
   Bfn.  Coefficient  Atom+Function         Bfn.  Coefficient  Atom+Function  
  ----- ------------  ---------------      ----- ------------  ---------------
     3      1.000000  1 H  px         


                     WFN1 Final Beta Natural Orbital Analysis
                     ----------------------------------------

 Vector    1  Occ=0.000000D+00  E= 0.000000D+00
              MO Center=  0.0D+00,  0.0D+00,  0.0D+00, r^2= 8.0D-01
   Bfn.  Coefficient  Atom+Function         Bfn.  Coefficient  Atom+Function  
  ----- ------------  ---------------      ----- ------------  ---------------
     2      0.665449  1 H  s                  1      0.427430  1 H  s          

 Vector    2  Occ=0.000000D+00  E= 0.000000D+00
              MO Center=  0.0D+00,  0.0D+00,  0.0D+00, r^2= 1.2D+00
   Bfn.  Coefficient  Atom+Function         Bfn.  Coefficient  Atom+Function  
  ----- ------------  ---------------      ----- ------------  ---------------
     1      1.257798  1 H  s                  2     -1.149752  1 H  s          

 Vector    3  Occ=0.000000D+00  E= 0.000000D+00
              MO Center=  0.0D+00,  0.0D+00,  0.0D+00, r^2= 3.2D-01
   Bfn.  Coefficient  Atom+Function         Bfn.  Coefficient  Atom+Function  
  ----- ------------  ---------------      ----- ------------  ---------------
     5      1.000000  1 H  pz         

 Vector    4  Occ=0.000000D+00  E= 0.000000D+00
              MO Center=  0.0D+00,  0.0D+00,  0.0D+00, r^2= 3.2D-01
   Bfn.  Coefficient  Atom+Function         Bfn.  Coefficient  Atom+Function  
  ----- ------------  ---------------      ----- ------------  ---------------
     4      1.000000  1 H  py         

 Vector    5  Occ=0.000000D+00  E= 0.000000D+00
              MO Center=  0.0D+00,  0.0D+00,  0.0D+00, r^2= 3.2D-01
   Bfn.  Coefficient  Atom+Function         Bfn.  Coefficient  Atom+Function  
  ----- ------------  ---------------      ----- ------------  ---------------
     3      1.000000  1 H  px         


 Task  times  cpu:        0.0s     wall:        0.0s


                                NWChem Input Module
                                -------------------



                                NWChem WFN1 Module
                                ------------------



      Superposition of Atomic Density Guess
      -------------------------------------

 Sum of atomic energies:          -0.49823254

      Non-variational initial energy
      ------------------------------

 Total energy =      -0.498233
 1-e energy   =      -0.498233
 2-e energy   =       0.000000
 HOMO         =      -0.498233
 LUMO         =       0.460935

 iteration              energy           error          err Na          err Nb          err Ca          err Cb
 ---------              ------           -----          ------          ------          ------          ------
         1         -0.92218291        0.251367        0.000000        0.000000        0.024672        0.226695
         2         -0.92222784        0.210107        0.000000        0.000000        0.021048        0.189058
         3         -0.92222790        0.211732        0.000000        0.000000        0.021177        0.190555
         4         -0.92222790        0.211760        0.000000        0.000000        0.021179        0.190581
         5         -0.92222790        0.211759        0.000000        0.000000        0.021179        0.190580
         6         -0.92222790        0.027238        0.000000        0.000000        0.021179        0.006058
         7         -0.92222790        0.027238        0.000000        0.000000        0.021179        0.006058
         8         -0.91924195        0.016731        0.000000        0.000000        0.010663        0.006068
         9         -0.92004454        0.093149        0.000000        0.000000        0.012985        0.080164
        10         -0.92167305        0.157849        0.000000        0.000000        0.007067        0.150782
        11         -0.92168335        0.171081        0.000000        0.000000        0.008240        0.162841
        12         -0.92168335        0.171347        0.000000        0.000000        0.008264        0.163082
        13         -0.92168335        0.171353        0.000000        0.000000        0.008265        0.163088
        14         -0.92168335        0.079715        0.000000        0.000000        0.008265        0.071450
        15         -0.92168335        0.055419        0.000000        0.000000        0.008265        0.047154
        16         -0.92168335        0.031138        0.000000        0.000000        0.008265        0.022873
        17         -0.92168335        0.019821        0.000000        0.000000        0.008265        0.011556
        18         -0.92168335        0.011091        0.000000        0.000000        0.008265        0.002826
        19         -0.91967175        0.002852        0.000000        0.000000        0.000025        0.002827
        20         -0.92168465        1.137199        0.000000        0.000000        0.009691        1.127509
        21         -0.92168986        1.064768        0.000000        0.000000        0.008756        1.056012
        22         -0.92168986        1.065063        0.000000        0.000000        0.008760        1.056303
        23         -0.92168986        0.017420        0.000000        0.000000        0.008760        0.008660
        24         -0.92168986        0.017421        0.000000        0.000000        0.008760        0.008660
        25         -0.91962219        0.008899        0.000000        0.000000        0.000218        0.008681
        26         -0.92175216        0.705204        0.000000        0.000000        0.008643        0.696561
        27         -0.92179428        0.773651        0.000000        0.000000        0.011115        0.762536
        28         -0.92179429        0.774386        0.000000        0.000000        0.011147        0.763239
        29         -0.92179429        0.774404        0.000000        0.000000        0.011148        0.763256
        30         -0.92179429        0.099986        0.000000        0.000000        0.011148        0.088839
        31         -0.92179429        0.051437        0.000000        0.000000        0.011148        0.040289
        32         -0.92179429        0.024459        0.000000        0.000000        0.011148        0.013312
        33         -0.92179429        0.016232        0.000000        0.000000        0.011148        0.005084
        34         -0.92008829        0.008310        0.000000        0.000000        0.003221        0.005088
        35         -0.92184597        0.141237        0.000000        0.000000        0.015824        0.125413
        36         -0.92200709        0.188879        0.000000        0.000000        0.022454        0.166424
        37         -0.92200713        0.189511        0.000000        0.000000        0.022555        0.166956
        38         -0.92200713        0.189543        0.000000        0.000000        0.022560        0.166983
        39         -0.92200713        0.189540        0.000000        0.000000        0.022560        0.166980
        40         -0.92200713        0.056619        0.000000        0.000000        0.022560        0.034059
        41         -0.92200713        0.028861        0.000000        0.000000        0.022560        0.006301
        42         -0.92013929        0.017515        0.000000        0.000000        0.011210        0.006305
        43         -0.92246328        0.239494        0.000000        0.000000        0.070515        0.168979
        44         -0.92247153        0.255447        0.000000        0.000000        0.073357        0.182089
        45         -0.92247172        0.257942        0.000000        0.000000        0.073798        0.184144
        46         -0.92247172        0.258280        0.000000        0.000000        0.073857        0.184423
        47         -0.92247172        0.191872        0.000000        0.000000        0.073857        0.118014
        48         -0.92247172        0.191905        0.000000        0.000000        0.073866        0.118039
        49         -0.92247172        0.132158        0.000000        0.000000        0.073866        0.058292
        50         -0.92247172        0.132158        0.000000        0.000000        0.073866        0.058292
        51         -0.92247172        0.132158        0.000000        0.000000        0.073866        0.058292
        52         -0.92247172        0.087136        0.000000        0.000000        0.073866        0.013270
        53         -0.92247172        0.054799        0.000000        0.000000        0.041529        0.013270
        54         -0.92121906        0.022309        0.000000        0.000000        0.009069        0.013240
        55         -0.92193080        0.055324        0.000000        0.000000        0.022048        0.033276
        56         -0.92193080        0.055213        0.000000        0.000000        0.021997        0.033216
        57         -0.92193080        0.055216        0.000000        0.000000        0.021998        0.033217
        58         -0.92193080        0.026668        0.000000        0.000000        0.021998        0.004670
        59         -0.92004130        0.015975        0.000000        0.000000        0.011299        0.004676
        60         -0.92241861        0.135779        0.000000        0.000000        0.072509        0.063270
        61         -0.92247308        0.151907        0.000000        0.000000        0.080281        0.071626
        62         -0.92247367        0.153550        0.000000        0.000000        0.081084        0.072466
        63         -0.92247367        0.153719        0.000000        0.000000        0.081167        0.072552
        64         -0.92247367        0.153738        0.000000        0.000000        0.081176        0.072562
        65         -0.92247367        0.103987        0.000000        0.000000        0.081176        0.022811
        66         -0.92247367        0.066726        0.000000        0.000000        0.043915        0.022811
        67         -0.92134921        0.037423        0.000000        0.000000        0.014626        0.022797
        68         -0.92190501        0.073682        0.000000        0.000000        0.027382        0.046299
        69         -0.92190515        0.074235        0.000000        0.000000        0.027600        0.046635
        70         -0.92190515        0.074245        0.000000        0.000000        0.027604        0.046641
        71         -0.92190515        0.074244        0.000000        0.000000        0.027603        0.046641
        72         -0.92190515        0.051693        0.000000        0.000000        0.027603        0.024090
        73         -0.92190515        0.032191        0.000000        0.000000        0.027603        0.004588
        74         -0.91995418        0.022344        0.000000        0.000000        0.017755        0.004589
        75         -0.92225393        0.309639        0.000000        0.000000        0.111643        0.197996
        76         -0.92239908        0.413824        0.000000        0.000000        0.127458        0.286366
        77         -0.92240199        0.429680        0.000000        0.000000        0.129642        0.300037
        78         -0.92240203        0.431582        0.000000        0.000000        0.129902        0.301680
        79         -0.92240203        0.431778        0.000000        0.000000        0.129928        0.301850
        80         -0.92240203        0.431799        0.000000        0.000000        0.129931        0.301868
        81         -0.92240203        0.280673        0.000000        0.000000        0.129931        0.150742
        82         -0.92240203        0.140914        0.000000        0.000000        0.129931        0.010983
        83         -0.92240203        0.095488        0.000000        0.000000        0.084505        0.010983
        84         -0.92240203        0.048283        0.000000        0.000000        0.037300        0.010983
        85         -0.92238420        0.051354        0.000000        0.000000        0.040370        0.010984
        86         -0.92238836        0.049098        0.000000        0.000000        0.038761        0.010337
        87         -0.92238836        0.049068        0.000000        0.000000        0.038740        0.010328
        88         -0.92238836        0.049068        0.000000        0.000000        0.038740        0.010328
        89         -0.92234202        0.053690        0.000000        0.000000        0.043360        0.010330
        90         -0.92235165        0.050256        0.000000        0.000000        0.040826        0.009430
        91         -0.92235166        0.050178        0.000000        0.000000        0.040768        0.009410
        92         -0.92235166        0.050176        0.000000        0.000000        0.040766        0.009409
        93         -0.92221990        0.058083        0.000000        0.000000        0.048670        0.009412
        94         -0.92224877        0.051621        0.000000        0.000000        0.043665        0.007956
        95         -0.92224881        0.051820        0.000000        0.000000        0.043820        0.008000
        96         -0.92224881        0.051847        0.000000        0.000000        0.043840        0.008006
        97         -0.92224881        0.051850        0.000000        0.000000        0.043843        0.008007
        98         -0.92188702        0.065410        0.000000        0.000000        0.057398        0.008011
        99         -0.92197658        0.054369        0.000000        0.000000        0.048292        0.006076
       100         -0.92197668        0.054030        0.000000        0.000000        0.048011        0.006019
       101         -0.92197668        0.053999        0.000000        0.000000        0.047985        0.006013
       102         -0.92197668        0.053996        0.000000        0.000000        0.047983        0.006013
       103         -0.92197668        0.053996        0.000000        0.000000        0.047983        0.006013
       104         -0.92125665        0.072895        0.000000        0.000000        0.066877        0.006017
       105         -0.92144477        0.057042        0.000000        0.000000        0.052971        0.004071
       106         -0.92144656        0.055615        0.000000        0.000000        0.051709        0.003906
       107         -0.92144660        0.055420        0.000000        0.000000        0.051537        0.003883
       108         -0.92144660        0.055389        0.000000        0.000000        0.051510        0.003880
       109         -0.92144660        0.055384        0.000000        0.000000        0.051505        0.003879
       110         -0.92144660        0.055383        0.000000        0.000000        0.051505        0.003879
       111         -0.92168068        0.046511        0.000000        0.000000        0.042634        0.003877
       112         -0.92173322        0.053078        0.000000        0.000000        0.048275        0.004804
       113         -0.92173613        0.054587        0.000000        0.000000        0.049564        0.005023
       114         -0.92173635        0.055024        0.000000        0.000000        0.049937        0.005087
       115         -0.92173636        0.055126        0.000000        0.000000        0.050024        0.005102
       116         -0.92173636        0.055147        0.000000        0.000000        0.050043        0.005105
       117         -0.92132308        0.066201        0.000000        0.000000        0.061094        0.005107
       118         -0.92139338        0.057000        0.000000        0.000000        0.052992        0.004008
       119         -0.92139472        0.055734        0.000000        0.000000        0.051872        0.003863
       120         -0.92139474        0.055581        0.000000        0.000000        0.051736        0.003845
       121         -0.92139474        0.055557        0.000000        0.000000        0.051715        0.003842
       122         -0.92139474        0.055553        0.000000        0.000000        0.051711        0.003842
       123         -0.92139474        0.055552        0.000000        0.000000        0.051711        0.003842
       124         -0.92053450        0.012322        0.000000        0.000000        0.008489        0.003833
       125         -0.92233994        0.096085        0.000000        0.000000        0.038980        0.057105
       126         -0.92234618        0.102395        0.000000        0.000000        0.040813        0.061582
       127         -0.92234620        0.102817        0.000000        0.000000        0.040935        0.061882
       128         -0.92234620        0.102842        0.000000        0.000000        0.040942        0.061899
       129         -0.92234620        0.102846        0.000000        0.000000        0.040944        0.061902
       130         -0.92234620        0.044555        0.000000        0.000000        0.040944        0.003611
       131         -0.92087949        0.090571        0.000000        0.000000        0.086947        0.003624
       132         -0.92176437        0.056715        0.000000        0.000000        0.054317        0.002399
       133         -0.92176537        0.055703        0.000000        0.000000        0.053347        0.002355
       134         -0.92176538        0.055611        0.000000        0.000000        0.053260        0.002351
       135         -0.92176538        0.055603        0.000000        0.000000        0.053252        0.002351
       136         -0.92176538        0.055601        0.000000        0.000000        0.053251        0.002351
       137         -0.92079598        0.017201        0.000000        0.000000        0.014860        0.002341
       138         -0.92235754        0.064389        0.000000        0.000000        0.050921        0.013469
       139         -0.92235775        0.064864        0.000000        0.000000        0.051286        0.013578
       140         -0.92235775        0.064896        0.000000        0.000000        0.051310        0.013585
       141         -0.92235775        0.064897        0.000000        0.000000        0.051311        0.013586
       142         -0.92235775        0.052606        0.000000        0.000000        0.051311        0.001294
       143         -0.92235775        0.041668        0.000000        0.000000        0.040374        0.001294
       144         -0.92235775        0.033863        0.000000        0.000000        0.032569        0.001294
       145         -0.92035259        0.021213        0.000000        0.000000        0.019919        0.001294
       146         -0.92095892        0.043633        0.000000        0.000000        0.040060        0.003574
       147         -0.92106691        0.053331        0.000000        0.000000        0.048757        0.004574
       148         -0.92107770        0.056326        0.000000        0.000000        0.051453        0.004873
       149         -0.92107883        0.057352        0.000000        0.000000        0.052378        0.004974
       150         -0.92107892        0.057616        0.000000        0.000000        0.052616        0.005000
       151         -0.92107893        0.057709        0.000000        0.000000        0.052700        0.005009
       152         -0.92107893        0.057736        0.000000        0.000000        0.052724        0.005012
       153         -0.92107893        0.057739        0.000000        0.000000        0.052727        0.005012
       154         -0.92107893        0.057744        0.000000        0.000000        0.052731        0.005013
       155         -0.92103004        0.059411        0.000000        0.000000        0.054398        0.005013
       156         -0.92103155        0.058057        0.000000        0.000000        0.053173        0.004884
       157         -0.92103160        0.057825        0.000000        0.000000        0.052963        0.004862
       158         -0.92103160        0.057770        0.000000        0.000000        0.052913        0.004857
       159         -0.92103160        0.057757        0.000000        0.000000        0.052901        0.004855
       160         -0.92103160        0.057753        0.000000        0.000000        0.052898        0.004855
       161         -0.92103160        0.057753        0.000000        0.000000        0.052898        0.004855
       162         -0.92103160        0.057753        0.000000        0.000000        0.052898        0.004855
       163         -0.92103508        0.057630        0.000000        0.000000        0.052775        0.004855
       164         -0.92103509        0.057717        0.000000        0.000000        0.052854        0.004863
       165         -0.92103509        0.057738        0.000000        0.000000        0.052873        0.004865
       166         -0.92103509        0.057747        0.000000        0.000000        0.052881        0.004866
       167         -0.92103546        0.057734        0.000000        0.000000        0.052868        0.004866
       168         -0.92103546        0.057746        0.000000        0.000000        0.052879        0.004867
       169         -0.92103556        0.057743        0.000000        0.000000        0.052875        0.004867
       170         -0.92103556        0.057750        0.000000        0.000000        0.052882        0.004868
       171         -0.92103556        0.057752        0.000000        0.000000        0.052884        0.004868
       172         -0.92103248        0.057860        0.000000        0.000000        0.052992        0.004868
       173         -0.92103249        0.057778        0.000000        0.000000        0.052918        0.004861
       174         -0.92103249        0.057758        0.000000        0.000000        0.052899        0.004859
       175         -0.92103249        0.057754        0.000000        0.000000        0.052896        0.004858
       176         -0.92103249        0.057753        0.000000        0.000000        0.052895        0.004858
       177         -0.92103548        0.057648        0.000000        0.000000        0.052790        0.004858
       178         -0.92103548        0.057722        0.000000        0.000000        0.052856        0.004865
       179         -0.92103548        0.057742        0.000000        0.000000        0.052875        0.004867
       180         -0.92103548        0.057750        0.000000        0.000000        0.052882        0.004868
       181         -0.92103548        0.057752        0.000000        0.000000        0.052884        0.004868
       182         -0.92103248        0.057857        0.000000        0.000000        0.052989        0.004868
       183         -0.92103249        0.057778        0.000000        0.000000        0.052917        0.004860
       184         -0.92103249        0.057758        0.000000        0.000000        0.052899        0.004859
       185         -0.92103249        0.057754        0.000000        0.000000        0.052896        0.004858
       186         -0.92103249        0.057753        0.000000        0.000000        0.052895        0.004858
       187         -0.92103249        0.057753        0.000000        0.000000        0.052895        0.004858
       188         -0.92103249        0.057753        0.000000        0.000000        0.052895        0.004858
       189         -0.92103550        0.057647        0.000000        0.000000        0.052789        0.004858
       190         -0.92103550        0.057721        0.000000        0.000000        0.052856        0.004865
       191         -0.92103550        0.057746        0.000000        0.000000        0.052878        0.004868
       192         -0.92103550        0.057751        0.000000        0.000000        0.052883        0.004868
       193         -0.92103550        0.057752        0.000000        0.000000        0.052884        0.004868
       194         -0.92103247        0.057859        0.000000        0.000000        0.052990        0.004868
       195         -0.92103248        0.057778        0.000000        0.000000        0.052917        0.004860
       196         -0.92103248        0.057758        0.000000        0.000000        0.052899        0.004859
       197         -0.92103248        0.057754        0.000000        0.000000        0.052896        0.004858
       198         -0.92103248        0.057753        0.000000        0.000000        0.052895        0.004858
       199         -0.92103416        0.057694        0.000000        0.000000        0.052836        0.004858
       200         -0.92103416        0.057734        0.000000        0.000000        0.052872        0.004862
       201         -0.92103416        0.057748        0.000000        0.000000        0.052885        0.004863
       202         -0.92103416        0.057752        0.000000        0.000000        0.052888        0.004864
       203         -0.92103416        0.057752        0.000000        0.000000        0.052889        0.004864
       204         -0.92103539        0.057709        0.000000        0.000000        0.052845        0.004864
       205         -0.92103539        0.057739        0.000000        0.000000        0.052873        0.004867
       206         -0.92103539        0.057748        0.000000        0.000000        0.052880        0.004867
       207         -0.92103539        0.057752        0.000000        0.000000        0.052884        0.004868
       208         -0.92103539        0.057754        0.000000        0.000000        0.052886        0.004868
       209         -0.92103496        0.057769        0.000000        0.000000        0.052901        0.004868
       210         -0.92103497        0.057757        0.000000        0.000000        0.052890        0.004867
       211         -0.92103497        0.057754        0.000000        0.000000        0.052887        0.004867
       212         -0.92103534        0.057740        0.000000        0.000000        0.052874        0.004867
       213         -0.92103534        0.057748        0.000000        0.000000        0.052881        0.004867
       214         -0.92103534        0.057752        0.000000        0.000000        0.052884        0.004868
       215         -0.92103534        0.057752        0.000000        0.000000        0.052885        0.004868
       216         -0.92103536        0.057752        0.000000        0.000000        0.052884        0.004868
       217         -0.92103536        0.057753        0.000000        0.000000        0.052885        0.004868
       218         -0.92103536        0.057753        0.000000        0.000000        0.052885        0.004868
       219         -0.92102371        0.058158        0.000000        0.000000        0.053290        0.004868
       220         -0.92102380        0.057849        0.000000        0.000000        0.053010        0.004838
       221         -0.92102381        0.057775        0.000000        0.000000        0.052944        0.004831
       222         -0.92102381        0.057756        0.000000        0.000000        0.052927        0.004830
       223         -0.92102381        0.057753        0.000000        0.000000        0.052924        0.004829
       224         -0.92102381        0.057752        0.000000        0.000000        0.052923        0.004829
       225         -0.92102381        0.057752        0.000000        0.000000        0.052923        0.004829
       226         -0.92102381        0.057752        0.000000        0.000000        0.052923        0.004829
       227         -0.92103590        0.057324        0.000000        0.000000        0.052495        0.004829
       228         -0.92103600        0.057609        0.000000        0.000000        0.052753        0.004856
       229         -0.92103601        0.057712        0.000000        0.000000        0.052845        0.004866
       230         -0.92103601        0.057742        0.000000        0.000000        0.052873        0.004869
       231         -0.92103601        0.057748        0.000000        0.000000        0.052878        0.004870
       232         -0.92103601        0.057752        0.000000        0.000000        0.052882        0.004870
       233         -0.92103601        0.057753        0.000000        0.000000        0.052882        0.004870
       234         -0.92102953        0.057979        0.000000        0.000000        0.053109        0.004870
       235         -0.92102956        0.057801        0.000000        0.000000        0.052948        0.004853
       236         -0.92102956        0.057764        0.000000        0.000000        0.052914        0.004850
       237         -0.92102956        0.057755        0.000000        0.000000        0.052906        0.004849
       238         -0.92102956        0.057753        0.000000        0.000000        0.052904        0.004849
       239         -0.92102956        0.057753        0.000000        0.000000        0.052904        0.004849
       240         -0.92102956        0.057752        0.000000        0.000000        0.052904        0.004849
       241         -0.92103562        0.057539        0.000000        0.000000        0.052690        0.004849
       242         -0.92103564        0.057693        0.000000        0.000000        0.052830        0.004863
       243         -0.92103564        0.057734        0.000000        0.000000        0.052866        0.004867
       244         -0.92103564        0.057746        0.000000        0.000000        0.052877        0.004869
       245         -0.92103564        0.057751        0.000000        0.000000        0.052882        0.004869
       246         -0.92103564        0.057753        0.000000        0.000000        0.052884        0.004869
       247         -0.92102952        0.057967        0.000000        0.000000        0.053098        0.004869
       248         -0.92102955        0.057797        0.000000        0.000000        0.052944        0.004853
       249         -0.92102955        0.057763        0.000000        0.000000        0.052913        0.004850
       250         -0.92102955        0.057755        0.000000        0.000000        0.052906        0.004849
       251         -0.92102955        0.057753        0.000000        0.000000        0.052904        0.004849
       252         -0.92103541        0.057546        0.000000        0.000000        0.052698        0.004849
       253         -0.92103543        0.057695        0.000000        0.000000        0.052832        0.004863
       254         -0.92103543        0.057730        0.000000        0.000000        0.052864        0.004866
       255         -0.92103543        0.057745        0.000000        0.000000        0.052877        0.004868
       256         -0.92103543        0.057751        0.000000        0.000000        0.052883        0.004868
       257         -0.92103543        0.057753        0.000000        0.000000        0.052884        0.004869
       258         -0.92103460        0.057782        0.000000        0.000000        0.052913        0.004869
       259         -0.92103460        0.057759        0.000000        0.000000        0.052893        0.004866
       260         -0.92103460        0.057754        0.000000        0.000000        0.052888        0.004866
       261         -0.92103460        0.057753        0.000000        0.000000        0.052887        0.004866
       262         -0.92103460        0.057753        0.000000        0.000000        0.052887        0.004866
       263         -0.92103536        0.057726        0.000000        0.000000        0.052861        0.004866
       264         -0.92103536        0.057746        0.000000        0.000000        0.052879        0.004868
       265         -0.92103553        0.057740        0.000000        0.000000        0.052872        0.004868
       266         -0.92103553        0.057751        0.000000        0.000000        0.052882        0.004869
       267         -0.92103553        0.057752        0.000000        0.000000        0.052884        0.004869
       268         -0.92103245        0.057861        0.000000        0.000000        0.052992        0.004869
       269         -0.92103245        0.057778        0.000000        0.000000        0.052917        0.004861
       270         -0.92103245        0.057758        0.000000        0.000000        0.052899        0.004859
       271         -0.92103245        0.057754        0.000000        0.000000        0.052895        0.004859
       272         -0.92103245        0.057753        0.000000        0.000000        0.052894        0.004859
       273         -0.92103245        0.057753        0.000000        0.000000        0.052894        0.004859
       274         -0.92103546        0.057647        0.000000        0.000000        0.052788        0.004858
       275         -0.92103547        0.057721        0.000000        0.000000        0.052856        0.004866
       276         -0.92103547        0.057746        0.000000        0.000000        0.052878        0.004868
       277         -0.92103547        0.057751        0.000000        0.000000        0.052883        0.004869
       278         -0.92103547        0.057752        0.000000        0.000000        0.052884        0.004869
       279         -0.92102955        0.057959        0.000000        0.000000        0.053091        0.004869
       280         -0.92102958        0.057794        0.000000        0.000000        0.052941        0.004853
       281         -0.92102958        0.057762        0.000000        0.000000        0.052913        0.004850
       282         -0.92102958        0.057755        0.000000        0.000000        0.052906        0.004849
       283         -0.92102958        0.057753        0.000000        0.000000        0.052904        0.004849
       284         -0.92102958        0.057753        0.000000        0.000000        0.052904        0.004849
       285         -0.92102958        0.057752        0.000000        0.000000        0.052904        0.004849
       286         -0.92103561        0.057540        0.000000        0.000000        0.052691        0.004849
       287         -0.92103563        0.057693        0.000000        0.000000        0.052830        0.004864
       288         -0.92103563        0.057734        0.000000        0.000000        0.052866        0.004867
       289         -0.92103563        0.057746        0.000000        0.000000        0.052878        0.004869
       290         -0.92103407        0.057801        0.000000        0.000000        0.052932        0.004869
       291         -0.92103407        0.057764        0.000000        0.000000        0.052899        0.004865
       292         -0.92103407        0.057755        0.000000        0.000000        0.052891        0.004864
       293         -0.92103407        0.057753        0.000000        0.000000        0.052889        0.004864
       294         -0.92103407        0.057753        0.000000        0.000000        0.052889        0.004864
       295         -0.92103535        0.057708        0.000000        0.000000        0.052844        0.004864
       296         -0.92103535        0.057744        0.000000        0.000000        0.052876        0.004868
       297         -0.92103535        0.057751        0.000000        0.000000        0.052882        0.004868
       298         -0.92103535        0.057752        0.000000        0.000000        0.052884        0.004868
       299         -0.92103535        0.057754        0.000000        0.000000        0.052886        0.004869
       300         -0.92103535        0.057753        0.000000        0.000000        0.052885        0.004868
       301         -0.92103535        0.057753        0.000000        0.000000        0.052884        0.004868
       302         -0.92103535        0.057753        0.000000        0.000000        0.052884        0.004868
       303         -0.92103460        0.057779        0.000000        0.000000        0.052911        0.004868
       304         -0.92103460        0.057758        0.000000        0.000000        0.052892        0.004866
       305         -0.92103460        0.057754        0.000000        0.000000        0.052888        0.004866
       306         -0.92103460        0.057753        0.000000        0.000000        0.052887        0.004866
       307         -0.92103535        0.057727        0.000000        0.000000        0.052861        0.004866
       308         -0.92103535        0.057746        0.000000        0.000000        0.052879        0.004868
       309         -0.92103552        0.057740        0.000000        0.000000        0.052873        0.004868
       310         -0.92103552        0.057749        0.000000        0.000000        0.052881        0.004869
       311         -0.92103552        0.057752        0.000000        0.000000        0.052883        0.004869
       312         -0.92103552        0.057753        0.000000        0.000000        0.052884        0.004869
       313         -0.92103552        0.057753        0.000000        0.000000        0.052884        0.004869
       314         -0.92103243        0.057861        0.000000        0.000000        0.052992        0.004869
       315         -0.92103244        0.057779        0.000000        0.000000        0.052917        0.004861
       316         -0.92103244        0.057758        0.000000        0.000000        0.052899        0.004859
       317         -0.92103244        0.057754        0.000000        0.000000        0.052895        0.004859
       318         -0.92103244        0.057753        0.000000        0.000000        0.052894        0.004859
       319         -0.92103244        0.057753        0.000000        0.000000        0.052894        0.004859
       320         -0.92103545        0.057646        0.000000        0.000000        0.052788        0.004859
       321         -0.92103546        0.057721        0.000000        0.000000        0.052856        0.004866
       322         -0.92103546        0.057744        0.000000        0.000000        0.052876        0.004868
       323         -0.92103546        0.057751        0.000000        0.000000        0.052883        0.004869
       324         -0.92103546        0.057752        0.000000        0.000000        0.052884        0.004869
       325         -0.92103546        0.057753        0.000000        0.000000        0.052884        0.004869
       326         -0.92103546        0.057753        0.000000        0.000000        0.052884        0.004869
       327         -0.92103459        0.057783        0.000000        0.000000        0.052914        0.004869
       328         -0.92103460        0.057760        0.000000        0.000000        0.052893        0.004867
       329         -0.92103460        0.057754        0.000000        0.000000        0.052888        0.004866
       330         -0.92103460        0.057753        0.000000        0.000000        0.052887        0.004866
       331         -0.92103533        0.057727        0.000000        0.000000        0.052861        0.004866
       332         -0.92103533        0.057744        0.000000        0.000000        0.052876        0.004867
       333         -0.92103533        0.057751        0.000000        0.000000        0.052883        0.004868
       334         -0.92103533        0.057752        0.000000        0.000000        0.052884        0.004868
       335         -0.92103534        0.057752        0.000000        0.000000        0.052884        0.004868
       336         -0.92103534        0.057753        0.000000        0.000000        0.052884        0.004868
       337         -0.92103532        0.057753        0.000000        0.000000        0.052885        0.004868
       338         -0.92103532        0.057753        0.000000        0.000000        0.052885        0.004868
       339         -0.92103460        0.057778        0.000000        0.000000        0.052910        0.004868
       340         -0.92103460        0.057758        0.000000        0.000000        0.052892        0.004866
       341         -0.92103460        0.057754        0.000000        0.000000        0.052888        0.004866
       342         -0.92103460        0.057753        0.000000        0.000000        0.052887        0.004866
       343         -0.92103460        0.057753        0.000000        0.000000        0.052887        0.004866
       344         -0.92103460        0.057750        0.000000        0.000000        0.052884        0.004866
       345         -0.92103460        0.057752        0.000000        0.000000        0.052886        0.004866
       346         -0.92103460        0.057753        0.000000        0.000000        0.052887        0.004866
       347         -0.92102216        0.026454        0.000000        0.000000        0.021595        0.004859
       348         -0.92169413        0.049947        0.000000        0.000000        0.039911        0.010036
       349         -0.92173726        0.056177        0.000000        0.000000        0.044884        0.011293
       350         -0.92173927        0.057467        0.000000        0.000000        0.045921        0.011546
       351         -0.92173941        0.057826        0.000000        0.000000        0.046210        0.011616
       352         -0.92173942        0.057905        0.000000        0.000000        0.046274        0.011631
       353         -0.92173942        0.057920        0.000000        0.000000        0.046286        0.011634
       354         -0.92173942        0.057924        0.000000        0.000000        0.046289        0.011635
       355         -0.92173942        0.057925        0.000000        0.000000        0.046290        0.011635
       356         -0.92173942        0.057925        0.000000        0.000000        0.046290        0.011635
       357         -0.92132997        0.031801        0.000000        0.000000        0.020176        0.011625
       358         -0.92226486        0.078170        0.000000        0.000000        0.044999        0.033171
       359         -0.92226699        0.080189        0.000000        0.000000        0.046122        0.034067
       360         -0.92226701        0.080409        0.000000        0.000000        0.046245        0.034164
       361         -0.92226701        0.080431        0.000000        0.000000        0.046257        0.034174
       362         -0.92226701        0.080433        0.000000        0.000000        0.046258        0.034174
       363         -0.92226701        0.067179        0.000000        0.000000        0.046258        0.020921
       364         -0.92226701        0.057263        0.000000        0.000000        0.046258        0.011005
       365         -0.92192234        0.037923        0.000000        0.000000        0.026925        0.010998
       366         -0.92208320        0.050433        0.000000        0.000000        0.034944        0.015488
       367         -0.92208436        0.051523        0.000000        0.000000        0.035653        0.015871
       368         -0.92208436        0.051611        0.000000        0.000000        0.035710        0.015901
       369         -0.92208436        0.039529        0.000000        0.000000        0.035710        0.003820
       370         -0.92208436        0.032247        0.000000        0.000000        0.028427        0.003820
       371         -0.92012846        0.021554        0.000000        0.000000        0.017733        0.003821
       372         -0.92038368        0.040792        0.000000        0.000000        0.027713        0.013078
       373         -0.92049208        0.055770        0.000000        0.000000        0.033694        0.022075
       374         -0.92053282        0.068648        0.000000        0.000000        0.038239        0.030409
       375         -0.92054020        0.074361        0.000000        0.000000        0.040122        0.034239
       376         -0.92054155        0.077030        0.000000        0.000000        0.040980        0.036050
       377         -0.92054173        0.078004        0.000000        0.000000        0.041290        0.036715
       378         -0.92054176        0.078410        0.000000        0.000000        0.041418        0.036992
       379         -0.92054177        0.078553        0.000000        0.000000        0.041463        0.037089
       380         -0.92054177        0.078599        0.000000        0.000000        0.041478        0.037121
       381         -0.92054177        0.078628        0.000000        0.000000        0.041487        0.037141
       382         -0.92054177        0.078637        0.000000        0.000000        0.041490        0.037147
       383         -0.92054177        0.078641        0.000000        0.000000        0.041491        0.037150
       384         -0.92054177        0.078642        0.000000        0.000000        0.041491        0.037150
       385         -0.92054177        0.078643        0.000000        0.000000        0.041492        0.037151
       386         -0.92054177        0.078642        0.000000        0.000000        0.041491        0.037151
       387         -0.92054177        0.078647        0.000000        0.000000        0.041493        0.037154
       388         -0.92054177        0.078644        0.000000        0.000000        0.041492        0.037152
       389         -0.92054177        0.078643        0.000000        0.000000        0.041492        0.037151
       390         -0.92054177        0.045855        0.000000        0.000000        0.041492        0.004363
       391         -0.92121456        0.026730        0.000000        0.000000        0.022380        0.004351
       392         -0.92223842        0.073511        0.000000        0.000000        0.051060        0.022450
       393         -0.92224008        0.075456        0.000000        0.000000        0.052119        0.023337
       394         -0.92224010        0.075688        0.000000        0.000000        0.052245        0.023443
       395         -0.92224010        0.075713        0.000000        0.000000        0.052259        0.023455
       396         -0.92224010        0.075714        0.000000        0.000000        0.052259        0.023455
       397         -0.92224010        0.052537        0.000000        0.000000        0.052259        0.000278
       398         -0.92224010        0.034362        0.000000        0.000000        0.034084        0.000278
       399         -0.92208750        0.020983        0.000000        0.000000        0.020707        0.000277
       400         -0.92225383        0.028617        0.000000        0.000000        0.028173        0.000445
       401         -0.92225398        0.028854        0.000000        0.000000        0.028405        0.000450
       402         -0.92225398        0.028866        0.000000        0.000000        0.028416        0.000450
       403         -0.92225398        0.028866        0.000000        0.000000        0.028416        0.000450
       404         -0.92038699        0.017166        0.000000        0.000000        0.016716        0.000450
       405         -0.92129359        0.048364        0.000000        0.000000        0.044504        0.003861
       406         -0.92140034        0.058864        0.000000        0.000000        0.053133        0.005731
       407         -0.92141144        0.062267        0.000000        0.000000        0.055875        0.006392
       408         -0.92141266        0.063454        0.000000        0.000000        0.056826        0.006628
       409         -0.92141276        0.063787        0.000000        0.000000        0.057093        0.006694
       410         -0.92141277        0.063902        0.000000        0.000000        0.057185        0.006717
       411         -0.92141277        0.063937        0.000000        0.000000        0.057213        0.006724
       412         -0.92141277        0.063947        0.000000        0.000000        0.057221        0.006726
       413         -0.92141277        0.063949        0.000000        0.000000        0.057223        0.006727
       414         -0.92108592        0.088287        0.000000        0.000000        0.081556        0.006730
       415         -0.92124707        0.070352        0.000000        0.000000        0.066071        0.004281
       416         -0.92124949        0.068315        0.000000        0.000000        0.064285        0.004030
       417         -0.92124956        0.067971        0.000000        0.000000        0.063982        0.003988
       418         -0.92124957        0.067896        0.000000        0.000000        0.063917        0.003979
       419         -0.92124957        0.067880        0.000000        0.000000        0.063903        0.003977
       420         -0.92124957        0.067877        0.000000        0.000000        0.063900        0.003977
       421         -0.92124957        0.067876        0.000000        0.000000        0.063899        0.003977
       422         -0.92124957        0.067876        0.000000        0.000000        0.063899        0.003977
       423         -0.92110477        0.078747        0.000000        0.000000        0.074770        0.003978
       424         -0.92113922        0.071091        0.000000        0.000000        0.067880        0.003211
       425         -0.92114068        0.069571        0.000000        0.000000        0.066504        0.003067
       426         -0.92114076        0.069216        0.000000        0.000000        0.066183        0.003033
       427         -0.92114076        0.069131        0.000000        0.000000        0.066105        0.003025
       428         -0.92114076        0.069110        0.000000        0.000000        0.066087        0.003023
       429         -0.92114076        0.069105        0.000000        0.000000        0.066082        0.003023
       430         -0.92114076        0.069104        0.000000        0.000000        0.066081        0.003023
       431         -0.92114076        0.069104        0.000000        0.000000        0.066081        0.003023
       432         -0.92112359        0.070643        0.000000        0.000000        0.067620        0.003023
       433         -0.92112431        0.069582        0.000000        0.000000        0.066655        0.002927
       434         -0.92112435        0.069313        0.000000        0.000000        0.066410        0.002902
       435         -0.92112435        0.069263        0.000000        0.000000        0.066365        0.002898
       436         -0.92112435        0.069250        0.000000        0.000000        0.066354        0.002897
       437         -0.92112435        0.069247        0.000000        0.000000        0.066351        0.002897
       438         -0.92112435        0.069247        0.000000        0.000000        0.066350        0.002897
       439         -0.92112085        0.069569        0.000000        0.000000        0.066672        0.002897
       440         -0.92112088        0.069327        0.000000        0.000000        0.066452        0.002875
       441         -0.92112088        0.069287        0.000000        0.000000        0.066415        0.002871
       442         -0.92112088        0.069278        0.000000        0.000000        0.066407        0.002871
       443         -0.92112088        0.069276        0.000000        0.000000        0.066405        0.002870
       444         -0.92112088        0.069275        0.000000        0.000000        0.066405        0.002870
       445         -0.92112088        0.069275        0.000000        0.000000        0.066405        0.002870
       446         -0.92112338        0.069041        0.000000        0.000000        0.066171        0.002870
       447         -0.92112339        0.069188        0.000000        0.000000        0.066304        0.002884
       448         -0.92112339        0.069235        0.000000        0.000000        0.066347        0.002888
       449         -0.92112339        0.069251        0.000000        0.000000        0.066362        0.002889
       450         -0.92112374        0.069219        0.000000        0.000000        0.066330        0.002889
       451         -0.92112374        0.069242        0.000000        0.000000        0.066351        0.002891
       452         -0.92112374        0.069249        0.000000        0.000000        0.066357        0.002892
       453         -0.92112374        0.069251        0.000000        0.000000        0.066359        0.002892
       454         -0.92112374        0.069251        0.000000        0.000000        0.066359        0.002892
       455         -0.92112374        0.069251        0.000000        0.000000        0.066359        0.002892
       456         -0.92112374        0.069251        0.000000        0.000000        0.066359        0.002892
       457         -0.92112374        0.069251        0.000000        0.000000        0.066359        0.002892
       458         -0.92112374        0.069251        0.000000        0.000000        0.066359        0.002892
       459         -0.92112375        0.069250        0.000000        0.000000        0.066358        0.002892
       460         -0.92112375        0.069251        0.000000        0.000000        0.066359        0.002892
       461         -0.92112375        0.069251        0.000000        0.000000        0.066359        0.002892
       462         -0.92112298        0.069322        0.000000        0.000000        0.066430        0.002892
       463         -0.92112299        0.069274        0.000000        0.000000        0.066386        0.002888
       464         -0.92112299        0.069262        0.000000        0.000000        0.066375        0.002887
       465         -0.92112299        0.069259        0.000000        0.000000        0.066372        0.002886
       466         -0.92112299        0.069258        0.000000        0.000000        0.066372        0.002886
       467         -0.92112299        0.069258        0.000000        0.000000        0.066371        0.002886
       468         -0.92112370        0.069191        0.000000        0.000000        0.066305        0.002886
       469         -0.92112370        0.069234        0.000000        0.000000        0.066343        0.002890
       470         -0.92112370        0.069245        0.000000        0.000000        0.066354        0.002891
       471         -0.92112387        0.069230        0.000000        0.000000        0.066338        0.002891
       472         -0.92112387        0.069243        0.000000        0.000000        0.066350        0.002892
       473         -0.92112387        0.069247        0.000000        0.000000        0.066354        0.002893
       474         -0.92112387        0.069250        0.000000        0.000000        0.066357        0.002893
       475         -0.92112387        0.069250        0.000000        0.000000        0.066357        0.002893
       476         -0.92112072        0.069540        0.000000        0.000000        0.066647        0.002893
       477         -0.92112075        0.069341        0.000000        0.000000        0.066466        0.002875
       478         -0.92112075        0.069292        0.000000        0.000000        0.066421        0.002871
       479         -0.92112075        0.069280        0.000000        0.000000        0.066410        0.002870
       480         -0.92112075        0.069277        0.000000        0.000000        0.066407        0.002870
       481         -0.92112075        0.069276        0.000000        0.000000        0.066407        0.002870
       482         -0.92112075        0.069276        0.000000        0.000000        0.066407        0.002870
       483         -0.92112356        0.069011        0.000000        0.000000        0.066142        0.002870
       484         -0.92112358        0.069178        0.000000        0.000000        0.066294        0.002884
       485         -0.92112358        0.069225        0.000000        0.000000        0.066336        0.002889
       486         -0.92112405        0.069181        0.000000        0.000000        0.066292        0.002889
       487         -0.92112405        0.069229        0.000000        0.000000        0.066336        0.002893
       488         -0.92112405        0.069244        0.000000        0.000000        0.066349        0.002894
       489         -0.92112405        0.069247        0.000000        0.000000        0.066353        0.002895
       490         -0.92112405        0.069248        0.000000        0.000000        0.066353        0.002895
       491         -0.92112405        0.069248        0.000000        0.000000        0.066354        0.002895
       492         -0.92111755        0.069840        0.000000        0.000000        0.066945        0.002895
       493         -0.92111765        0.069433        0.000000        0.000000        0.066574        0.002859
       494         -0.92111766        0.069333        0.000000        0.000000        0.066484        0.002850
       495         -0.92111766        0.069309        0.000000        0.000000        0.066461        0.002848
       496         -0.92111766        0.069303        0.000000        0.000000        0.066456        0.002847
       497         -0.92111766        0.069301        0.000000        0.000000        0.066454        0.002847
       498         -0.92111766        0.069301        0.000000        0.000000        0.066454        0.002847
       499         -0.92112167        0.068924        0.000000        0.000000        0.066077        0.002847
       500         -0.92112171        0.069165        0.000000        0.000000        0.066296        0.002868
       501         -0.92112172        0.069231        0.000000        0.000000        0.066357        0.002874
       502         -0.92112172        0.069257        0.000000        0.000000        0.066380        0.002877
       503         -0.92112172        0.069264        0.000000        0.000000        0.066387        0.002877
       504         -0.92112366        0.069082        0.000000        0.000000        0.066204        0.002877
       505         -0.92112367        0.069196        0.000000        0.000000        0.066309        0.002888
       506         -0.92112367        0.069231        0.000000        0.000000        0.066340        0.002891
       507         -0.92112367        0.069246        0.000000        0.000000        0.066354        0.002892
       508         -0.92112367        0.069250        0.000000        0.000000        0.066357        0.002892
       509         -0.92112367        0.069251        0.000000        0.000000        0.066358        0.002892
       510         -0.92112371        0.069247        0.000000        0.000000        0.066355        0.002892
       511         -0.92112371        0.069250        0.000000        0.000000        0.066357        0.002893
       512         -0.92112371        0.069251        0.000000        0.000000        0.066358        0.002893
       513         -0.92112370        0.069252        0.000000        0.000000        0.066359        0.002893
       514         -0.92112370        0.069251        0.000000        0.000000        0.066358        0.002893
       515         -0.92112365        0.069522        0.000000        0.000000        0.066605        0.002917
       516         -0.92112368        0.069317        0.000000        0.000000        0.066419        0.002899
       517         -0.92112368        0.069267        0.000000        0.000000        0.066373        0.002894
       518         -0.92112368        0.069255        0.000000        0.000000        0.066362        0.002893
       519         -0.92112368        0.069252        0.000000        0.000000        0.066359        0.002893
       520         -0.92112369        0.069251        0.000000        0.000000        0.066359        0.002893
       521         -0.92112369        0.069251        0.000000        0.000000        0.066358        0.002893
       522         -0.92112368        0.069386        0.000000        0.000000        0.066481        0.002905
       523         -0.92112368        0.069284        0.000000        0.000000        0.066388        0.002896
       524         -0.92112368        0.069259        0.000000        0.000000        0.066365        0.002893
       525         -0.92112368        0.069253        0.000000        0.000000        0.066360        0.002893
       526         -0.92112368        0.069251        0.000000        0.000000        0.066358        0.002893
       527         -0.92112368        0.069251        0.000000        0.000000        0.066358        0.002893
       528         -0.92112368        0.069251        0.000000        0.000000        0.066358        0.002893
       529         -0.92112371        0.069248        0.000000        0.000000        0.066356        0.002893
       530         -0.92112376        0.069244        0.000000        0.000000        0.066351        0.002893
       531         -0.92112376        0.069248        0.000000        0.000000        0.066355        0.002893
       532         -0.92112376        0.069248        0.000000        0.000000        0.066355        0.002893
       533         -0.92112377        0.069247        0.000000        0.000000        0.066354        0.002893
       534         -0.92112378        0.069246        0.000000        0.000000        0.066353        0.002893
       535         -0.92112378        0.069249        0.000000        0.000000        0.066356        0.002893
       536         -0.92112378        0.069250        0.000000        0.000000        0.066356        0.002893
       537         -0.92109668        0.071535        0.000000        0.000000        0.068642        0.002893
       538         -0.92109826        0.069951        0.000000        0.000000        0.067194        0.002758
       539         -0.92109835        0.069568        0.000000        0.000000        0.066843        0.002725
       540         -0.92109836        0.069472        0.000000        0.000000        0.066755        0.002717
       541         -0.92109836        0.069448        0.000000        0.000000        0.066733        0.002715
       542         -0.92109836        0.069442        0.000000        0.000000        0.066728        0.002714
       543         -0.92109836        0.069441        0.000000        0.000000        0.066726        0.002714
       544         -0.92109836        0.069440        0.000000        0.000000        0.066726        0.002714
       545         -0.92109836        0.069440        0.000000        0.000000        0.066726        0.002714
       546         -0.92111829        0.067474        0.000000        0.000000        0.064760        0.002714
       547         -0.92111945        0.068708        0.000000        0.000000        0.065886        0.002822
       548         -0.92111957        0.069108        0.000000        0.000000        0.066250        0.002858
       549         -0.92111958        0.069219        0.000000        0.000000        0.066351        0.002868
       550         -0.92111958        0.069256        0.000000        0.000000        0.066385        0.002871
       551         -0.92111958        0.069267        0.000000        0.000000        0.066395        0.002872
       552         -0.92112328        0.068917        0.000000        0.000000        0.066045        0.002872
       553         -0.92112331        0.069143        0.000000        0.000000        0.066251        0.002892
       554         -0.92112332        0.069213        0.000000        0.000000        0.066315        0.002898
       555         -0.92112332        0.069233        0.000000        0.000000        0.066333        0.002900
       556         -0.92112332        0.069241        0.000000        0.000000        0.066340        0.002901
       557         -0.92112332        0.069241        0.000000        0.000000        0.066340        0.002901
       558         -0.92112332        0.069240        0.000000        0.000000        0.066340        0.002901
       559         -0.92112340        0.069233        0.000000        0.000000        0.066332        0.002901
       560         -0.92112340        0.069238        0.000000        0.000000        0.066336        0.002901
       561         -0.92112345        0.069233        0.000000        0.000000        0.066332        0.002901
       562         -0.92112345        0.069237        0.000000        0.000000        0.066335        0.002902
       563         -0.92112345        0.069237        0.000000        0.000000        0.066335        0.002902
       564         -0.92112346        0.069236        0.000000        0.000000        0.066334        0.002902
       565         -0.92112346        0.069238        0.000000        0.000000        0.066336        0.002902
       566         -0.92112346        0.069239        0.000000        0.000000        0.066337        0.002902
       567         -0.92112341        0.069244        0.000000        0.000000        0.066342        0.002902
       568         -0.92112341        0.069241        0.000000        0.000000        0.066339        0.002902
       569         -0.92112341        0.069240        0.000000        0.000000        0.066338        0.002902
       570         -0.92112340        0.069241        0.000000        0.000000        0.066339        0.002902
       571         -0.92112340        0.069240        0.000000        0.000000        0.066338        0.002901
       572         -0.92112340        0.069240        0.000000        0.000000        0.066338        0.002901
       573         -0.92112341        0.069239        0.000000        0.000000        0.066338        0.002901
       574         -0.92112341        0.069240        0.000000        0.000000        0.066338        0.002901
       575         -0.92112341        0.069239        0.000000        0.000000        0.066338        0.002901
       576         -0.92112341        0.069239        0.000000        0.000000        0.066338        0.002901
       577         -0.92112341        0.069240        0.000000        0.000000        0.066338        0.002902
       578         -0.92112341        0.069240        0.000000        0.000000        0.066338        0.002902
       579         -0.92112303        0.069275        0.000000        0.000000        0.066374        0.002902
       580         -0.92112303        0.069251        0.000000        0.000000        0.066351        0.002899
       581         -0.92112303        0.069244        0.000000        0.000000        0.066346        0.002899
       582         -0.92112303        0.069243        0.000000        0.000000        0.066344        0.002899
       583         -0.92112335        0.069213        0.000000        0.000000        0.066314        0.002899
       584         -0.92112335        0.069233        0.000000        0.000000        0.066333        0.002901
       585         -0.92112335        0.069238        0.000000        0.000000        0.066337        0.002901
       586         -0.92112344        0.069230        0.000000        0.000000        0.066329        0.002901
       587         -0.92112344        0.069237        0.000000        0.000000        0.066335        0.002902
[...]
       901         -0.91955420        0.024080        0.000000        0.000000        0.021839        0.002242
       902         -0.91955420        0.024075        0.000000        0.000000        0.021834        0.002241
       903         -0.91841296        0.011652        0.000000        0.000000        0.009418        0.002234
       904         -0.92162987        0.011563        0.000000        0.000000        0.005682        0.005881
       905         -0.92168325        0.015678        0.000000        0.000000        0.008233        0.007446
       906         -0.92168326        0.015739        0.000000        0.000000        0.008271        0.007467
       907         -0.92168326        0.015740        0.000000        0.000000        0.008272        0.007468
       908         -0.91966902        0.007504        0.000000        0.000000        0.000024        0.007480
       909         -0.92168673        1.608738        0.000000        0.000000        0.009043        1.599695
       910         -0.92168770        1.569952        0.000000        0.000000        0.008644        1.561308
       911         -0.92168770        1.570446        0.000000        0.000000        0.008649        1.561796
       912         -0.92168770        0.530633        0.000000        0.000000        0.008649        0.521984
       913         -0.92168770        0.530638        0.000000        0.000000        0.008650        0.521988
       914         -0.92168770        0.029458        0.000000        0.000000        0.008650        0.020809
       915         -0.92168770        0.010247        0.000000        0.000000        0.008650        0.001598
       916         -0.91961582        0.001805        0.000000        0.000000        0.000207        0.001598
       917         -0.92174817        0.202239        0.000000        0.000000        0.009467        0.192772
       918         -0.92176245        0.223844        0.000000        0.000000        0.010893        0.212951
       919         -0.92176245        0.223906        0.000000        0.000000        0.010898        0.213008
       920         -0.92176245        0.223908        0.000000        0.000000        0.010898        0.213010
       921         -0.92176245        0.223909        0.000000        0.000000        0.010898        0.213011
       922         -0.92176245        0.141057        0.000000        0.000000        0.010898        0.130160
       923         -0.92176245        0.093468        0.000000        0.000000        0.010898        0.082570
       924         -0.92176245        0.048781        0.000000        0.000000        0.010898        0.037884
       925         -0.92176245        0.013636        0.000000        0.000000        0.010898        0.002739
       926         -0.91978165        0.006280        0.000000        0.000000        0.003540        0.002740
       927         -0.92229009        0.995270        0.000000        0.000000        0.067827        0.927443
       928         -0.92230866        1.113713        0.000000        0.000000        0.071429        1.042284
       929         -0.92230866        1.113220        0.000000        0.000000        0.071414        1.041807
       930         -0.92230866        0.150751        0.000000        0.000000        0.071414        0.079338
       931         -0.92230866        0.150749        0.000000        0.000000        0.071413        0.079336
       932         -0.92230866        0.108758        0.000000        0.000000        0.071413        0.037345
       933         -0.92230866        0.075220        0.000000        0.000000        0.037875        0.037345
       934         -0.92230866        0.044186        0.000000        0.000000        0.037875        0.006311
       935         -0.91929095        0.033865        0.000000        0.000000        0.027542        0.006324
       936         -0.91929931        0.038127        0.000000        0.000000        0.030490        0.007637
       937         -0.91931362        0.043988        0.000000        0.000000        0.034450        0.009538
       938         -0.91933456        0.051395        0.000000        0.000000        0.039322        0.012074
       939         -0.91935994        0.059854        0.000000        0.000000        0.044734        0.015120
       940         -0.91938502        0.068494        0.000000        0.000000        0.050126        0.018368
       941         -0.91940528        0.076379        0.000000        0.000000        0.054950        0.021429
       942         -0.91941896        0.082873        0.000000        0.000000        0.058864        0.024009
       943         -0.91942699        0.087784        0.000000        0.000000        0.061795        0.025989
       944         -0.91943138        0.091724        0.000000        0.000000        0.064131        0.027594
       945         -0.91943339        0.094388        0.000000        0.000000        0.065702        0.028686
       946         -0.91943427        0.096127        0.000000        0.000000        0.066726        0.029402
       947         -0.91943464        0.097236        0.000000        0.000000        0.067377        0.029859
       948         -0.91943480        0.097933        0.000000        0.000000        0.067785        0.030147
       949         -0.91943487        0.098429        0.000000        0.000000        0.068076        0.030353
       950         -0.91943489        0.098736        0.000000        0.000000        0.068256        0.030480
       951         -0.91943490        0.098925        0.000000        0.000000        0.068367        0.030558
       952         -0.91943491        0.099042        0.000000        0.000000        0.068435        0.030606
       953         -0.91943491        0.099108        0.000000        0.000000        0.068474        0.030634
       954         -0.91943491        0.099156        0.000000        0.000000        0.068502        0.030654
       955         -0.91943491        0.099193        0.000000        0.000000        0.068524        0.030669
       956         -0.91943491        0.099212        0.000000        0.000000        0.068535        0.030677
       957         -0.91943491        0.099227        0.000000        0.000000        0.068544        0.030683
       958         -0.91943491        0.099237        0.000000        0.000000        0.068549        0.030687
       959         -0.91943491        0.099242        0.000000        0.000000        0.068553        0.030689
       960         -0.91943491        0.099245        0.000000        0.000000        0.068555        0.030691
       961         -0.91943491        0.071904        0.000000        0.000000        0.041213        0.030691
       962         -0.91943491        0.047003        0.000000        0.000000        0.041213        0.005790
       963         -0.92059960        0.024584        0.000000        0.000000        0.018801        0.005783
       964         -0.92127219        0.056207        0.000000        0.000000        0.037068        0.019139
       965         -0.92142241        0.071876        0.000000        0.000000        0.045109        0.026767
       966         -0.92143901        0.076905        0.000000        0.000000        0.047633        0.029272
       967         -0.92144086        0.078713        0.000000        0.000000        0.048537        0.030177
       968         -0.92144099        0.079175        0.000000        0.000000        0.048767        0.030408
       969         -0.92144100        0.079316        0.000000        0.000000        0.048838        0.030479
       970         -0.92144100        0.079352        0.000000        0.000000        0.048855        0.030497
       971         -0.92144100        0.079363        0.000000        0.000000        0.048861        0.030502
       972         -0.92144100        0.079365        0.000000        0.000000        0.048862        0.030503
       973         -0.92144100        0.079365        0.000000        0.000000        0.048862        0.030503
       974         -0.92163852        0.053679        0.000000        0.000000        0.023220        0.030459
       975         -0.92174227        0.042962        0.000000        0.000000        0.018128        0.024834
       976         -0.92174230        0.043122        0.000000        0.000000        0.018199        0.024922
       977         -0.92174230        0.032178        0.000000        0.000000        0.018199        0.013979
       978         -0.92174230        0.032189        0.000000        0.000000        0.018206        0.013983
       979         -0.92174230        0.032189        0.000000        0.000000        0.018206        0.013984
       980         -0.92174230        0.032189        0.000000        0.000000        0.018206        0.013983
       981         -0.92174230        0.022385        0.000000        0.000000        0.018206        0.004179
       982         -0.91957551        0.014641        0.000000        0.000000        0.010460        0.004180
       983         -0.92159129        1.691452        0.000000        0.000000        0.170693        1.520759
       984         -0.92211331        3.436070        0.000000        0.000000        0.242332        3.193738
       985         -0.92211864        3.488763        0.000000        0.000000        0.247000        3.241763
       986         -0.92211867        3.492735        0.000000        0.000000        0.247400        3.245335
       987         -0.92211867        3.492797        0.000000        0.000000        0.247406        3.245391
       988         -0.92211867        3.492803        0.000000        0.000000        0.247407        3.245396
       989         -0.92211867        2.273596        0.000000        0.000000        0.247407        2.026189
       990         -0.92211867        0.729770        0.000000        0.000000        0.247407        0.482363
       991         -0.92211867        0.307285        0.000000        0.000000        0.247407        0.059878
       992         -0.92211867        0.152318        0.000000        0.000000        0.092440        0.059878
       993         -0.92211867        0.100409        0.000000        0.000000        0.040531        0.059878
       994         -0.92211867        0.049854        0.000000        0.000000        0.040531        0.009323
       995         -0.92224906        0.027007        0.000000        0.000000        0.017701        0.009306
       996         -0.92230142        0.032244        0.000000        0.000000        0.021271        0.010973
       997         -0.92230146        0.032405        0.000000        0.000000        0.021384        0.011021
       998         -0.92230146        0.032412        0.000000        0.000000        0.021388        0.011023
       999         -0.92230146        0.022607        0.000000        0.000000        0.021388        0.001219
      1000         -0.92183736        0.010479        0.000000        0.000000        0.009262        0.001218

 Failed to Converge

 WFN1                     :
 --------------------------
 Total WFN1 energy =          -0.9218373611
 1-Electron energy =          -0.1592509301
 2-Electron energy =          -0.0000000000
 Entropy energy    =          -0.7625864310
 Nuclear energy    =           0.0000000000

 conventional Hartree-Fock:
 --------------------------
 Total SCF energy  =          -0.8173287469
 2-Electron energy =           0.1045086141

                WFN1 Final Natural orbital energies and occupations
                ---------------------------------------------------

              Alpha       Beta            Alpha       Beta  
            --------    --------        --------    --------
       1     -0.3241      0.0000          0.6505      0.0000
       2      0.1596      0.0000          0.3463      0.0000
       3      0.0021      0.0000          0.0013      0.0000
       4      0.0018      0.0000          0.0011      0.0000
       5      0.0014      0.0000          0.0008      0.0000

             WFN1 Final Correlation function energies and occupations
             --------------------------------------------------------

              Alpha       Beta            Alpha       Beta  
            --------    --------        --------    --------
       1     -0.0123     -1.5966          1.0000      0.0000
       2      0.0205     -0.6379          0.0000      0.0000
       3      0.5056      0.6338          0.0000      0.0000
       4      0.5506      0.6342          0.0000      0.0000
       5      0.5524      0.6342          0.0000      0.0000

                WFN1 Final alpha-alpha 2-matrix occupation numbers
                --------------------------------------------------


 global array: g_momo1[1:5,1:5],  handle: -994 

            1           2           3           4           5  
       ----------- ----------- ----------- ----------- -----------
   1       0.00000    -0.00000     0.00000     0.00000    -0.00000
   2      -0.00000     0.00000     0.00000     0.00000     0.00000
   3       0.00000     0.00000     0.00000     0.00000     0.00000
   4       0.00000     0.00000     0.00000     0.00000    -0.00000
   5      -0.00000     0.00000     0.00000    -0.00000     0.00000

                 WFN1 Final beta-beta 2-matrix occupation numbers
                 ------------------------------------------------


 global array: g_momo2[1:5,1:5],  handle: -993 

            1           2           3           4           5  
       ----------- ----------- ----------- ----------- -----------
   1       0.00000     0.00000     0.00000     0.00000     0.00000
   2       0.00000     0.00000     0.00000     0.00000     0.00000
   3       0.00000     0.00000     0.00000     0.00000     0.00000
   4       0.00000     0.00000     0.00000     0.00000     0.00000
   5       0.00000     0.00000     0.00000     0.00000     0.00000

                  WFN1 Final alpha Correlation Function Analysis
                  ----------------------------------------------


 global array: Ca[1:5,1:5],  handle: -988 

            1           2           3           4           5  
       ----------- ----------- ----------- ----------- -----------
   1       0.80655    -0.58713     0.06373     0.00547     0.02581
   2       0.58844     0.80816    -0.00881    -0.01188     0.01991
   3      -0.03605     0.01298     0.18180     0.43704     0.88004
   4       0.03295    -0.04453    -0.92995    -0.20857     0.29770
   5      -0.02881     0.00245     0.31305    -0.87483     0.36857

                   WFN1 Final beta Correlation Function Analysis
                   ---------------------------------------------


 global array: Cb[1:5,1:5],  handle: -987 

            1           2           3           4           5  
       ----------- ----------- ----------- ----------- -----------
   1       0.99994    -0.01137    -0.00033     0.00005    -0.00057
   2       0.01137     0.99978     0.01735     0.00061     0.00014
   3       0.00051    -0.00610     0.33082     0.37926     0.86411
   4       0.00020    -0.00919     0.55680    -0.81772     0.14566
   5      -0.00020    -0.01342     0.76173     0.43300    -0.48177

                     WFN1 Final Alpha Natural Orbital Analysis
                     -----------------------------------------

 Vector    1  Occ=6.505206D-01  E=-3.241108D-01
              MO Center=  0.0D+00,  0.0D+00,  0.0D+00, r^2= 8.0D-01
   Bfn.  Coefficient  Atom+Function         Bfn.  Coefficient  Atom+Function  
  ----- ------------  ---------------      ----- ------------  ---------------
     2      0.665449  1 H  s                  1      0.427430  1 H  s          

 Vector    2  Occ=3.462640D-01  E= 1.596051D-01
              MO Center=  0.0D+00,  0.0D+00,  0.0D+00, r^2= 1.2D+00
   Bfn.  Coefficient  Atom+Function         Bfn.  Coefficient  Atom+Function  
  ----- ------------  ---------------      ----- ------------  ---------------
     1      1.257798  1 H  s                  2     -1.149752  1 H  s          

 Vector    3  Occ=1.299513D-03  E= 2.123701D-03
              MO Center=  0.0D+00,  0.0D+00,  0.0D+00, r^2= 3.2D-01
   Bfn.  Coefficient  Atom+Function         Bfn.  Coefficient  Atom+Function  
  ----- ------------  ---------------      ----- ------------  ---------------
     5      1.000000  1 H  pz         

 Vector    4  Occ=1.085640D-03  E= 1.774185D-03
              MO Center=  0.0D+00,  0.0D+00,  0.0D+00, r^2= 3.2D-01
   Bfn.  Coefficient  Atom+Function         Bfn.  Coefficient  Atom+Function  
  ----- ------------  ---------------      ----- ------------  ---------------
     4      1.000000  1 H  py         

 Vector    5  Occ=8.302681D-04  E= 1.356848D-03
              MO Center=  0.0D+00,  0.0D+00,  0.0D+00, r^2= 3.2D-01
   Bfn.  Coefficient  Atom+Function         Bfn.  Coefficient  Atom+Function  
  ----- ------------  ---------------      ----- ------------  ---------------
     3      1.000000  1 H  px         


                     WFN1 Final Beta Natural Orbital Analysis
                     ----------------------------------------

 Vector    1  Occ=0.000000D+00  E= 0.000000D+00
              MO Center=  0.0D+00,  0.0D+00,  0.0D+00, r^2= 8.0D-01
   Bfn.  Coefficient  Atom+Function         Bfn.  Coefficient  Atom+Function  
  ----- ------------  ---------------      ----- ------------  ---------------
     2      0.665449  1 H  s                  1      0.427430  1 H  s          

 Vector    2  Occ=0.000000D+00  E= 0.000000D+00
              MO Center=  0.0D+00,  0.0D+00,  0.0D+00, r^2= 1.2D+00
   Bfn.  Coefficient  Atom+Function         Bfn.  Coefficient  Atom+Function  
  ----- ------------  ---------------      ----- ------------  ---------------
     1      1.257798  1 H  s                  2     -1.149752  1 H  s          

 Vector    3  Occ=0.000000D+00  E= 0.000000D+00
              MO Center=  0.0D+00,  0.0D+00,  0.0D+00, r^2= 3.2D-01
   Bfn.  Coefficient  Atom+Function         Bfn.  Coefficient  Atom+Function  
  ----- ------------  ---------------      ----- ------------  ---------------
     5      1.000000  1 H  pz         

 Vector    4  Occ=0.000000D+00  E= 0.000000D+00
              MO Center=  0.0D+00,  0.0D+00,  0.0D+00, r^2= 3.2D-01
   Bfn.  Coefficient  Atom+Function         Bfn.  Coefficient  Atom+Function  
  ----- ------------  ---------------      ----- ------------  ---------------
     4      1.000000  1 H  py         

 Vector    5  Occ=0.000000D+00  E= 0.000000D+00
              MO Center=  0.0D+00,  0.0D+00,  0.0D+00, r^2= 3.2D-01
   Bfn.  Coefficient  Atom+Function         Bfn.  Coefficient  Atom+Function  
  ----- ------------  ---------------      ----- ------------  ---------------
     3      1.000000  1 H  px         

 ------------------------------------------------------------------------
 wfn1 energy failed                                                                                 0
 ------------------------------------------------------------------------
 ------------------------------------------------------------------------
  current input line : 
    25: task wfn1 energy
 ------------------------------------------------------------------------
 ------------------------------------------------------------------------
 This type of error is most commonly associated with calculations not reaching convergence criteria
 ------------------------------------------------------------------------
 For more information see the NWChem manual at http://www.nwchem-sw.org/index.php/NWChem_Documentation


 For further details see manual section:                                                                                                                                                                                                                                                                
