 argument  1 = input-wf.nw



============================== echo of input deck ==============================
echo
start wfn1_dat
geometry units au noautoz
  H 0 0 -1.64434600000000000000
  H 0 0  1.64434600000000000000
  symmetry cs
end
basis
  H library 6-31g
end
set wfn1:input_vectors "atomic"
set wfn1:solver "monte-carlo"
set wfn1:print_error F
set wfn1:t_initial 0.1
set wfn1:nopen 2
#set wfn1:corr_expr "wfn1_mx"
set wfn1:corr_expr "wfn1c"
set wfn1:t_bath 0.0
set wfn1:maxit  20000
task wfn1 energy
================================================================================


                                         
                                         


              Northwest Computational Chemistry Package (NWChem) 6.8
              ------------------------------------------------------


                    Environmental Molecular Sciences Laboratory
                       Pacific Northwest National Laboratory
                                Richland, WA 99352

                              Copyright (c) 1994-2015
                       Pacific Northwest National Laboratory
                            Battelle Memorial Institute

             NWChem is an open-source computational chemistry package
                        distributed under the terms of the
                      Educational Community License (ECL) 2.0
             A copy of the license is included with this distribution
                              in the LICENSE.TXT file

                                  ACKNOWLEDGMENT
                                  --------------

            This software and its documentation were developed at the
            EMSL at Pacific Northwest National Laboratory, a multiprogram
            national laboratory, operated for the U.S. Department of Energy
            by Battelle under Contract Number DE-AC05-76RL01830. Support
            for this work was provided by the Department of Energy Office
            of Biological and Environmental Research, Office of Basic
            Energy Sciences, and the Office of Advanced Scientific Computing.


           Job information
           ---------------

    hostname        = erato
    program         = ../../../bin/LINUX64/nwchem
    date            = Sat Mar  6 01:24:24 2021

    compiled        = Sat_Mar_06_01:07:04_2021
    source          = /home/hvandam/nwchem-1-wfn1
    nwchem branch   = Development
    nwchem revision = nwchem_on_git-124-gad72d19fff205e319ffbbf2bca37a04ded6ad57b
    ga revision     = nwchem_on_git-124-gad72d19
    use scalapack   = F
    input           = input-wf.nw
    prefix          = wfn1_dat.
    data base       = ./wfn1_dat.db
    status          = startup
    nproc           =        1
    time left       =     -1s



           Memory information
           ------------------

    heap     =   13107198 doubles =    100.0 Mbytes
    stack    =   13107195 doubles =    100.0 Mbytes
    global   =   26214400 doubles =    200.0 Mbytes (distinct from heap & stack)
    total    =   52428793 doubles =    400.0 Mbytes
    verify   = yes
    hardfail = no 


           Directory information
           ---------------------

  0 permanent = .
  0 scratch   = .




                                NWChem Input Module
                                -------------------


 Turning off AUTOSYM since
 SYMMETRY directive was detected!



                             Geometry "geometry" -> ""
                             -------------------------

 Output coordinates in a.u. (scale by  1.000000000 to convert to a.u.)

  No.       Tag          Charge          X              Y              Z
 ---- ---------------- ---------- -------------- -------------- --------------
    1 H                    1.0000     0.00000000     0.00000000    -1.64434600
    2 H                    1.0000     0.00000000     0.00000000     1.64434600

      Atomic Mass 
      ----------- 

      H                  1.007825


 Effective nuclear repulsion energy (a.u.)       0.3040722573

            Nuclear Dipole moment (a.u.) 
            ----------------------------
        X                 Y               Z
 ---------------- ---------------- ----------------
     0.0000000000     0.0000000000     0.0000000000

      Symmetry information
      --------------------

 Group name             Cs        
 Group number              2
 Group order               2
 No. of unique centers     1

      Symmetry unique atoms

     1


            XYZ format geometry
            -------------------
     2
 geometry
 H                     0.00000000     0.00000000    -0.87015049
 H                     0.00000000     0.00000000     0.87015049

                      Basis "ao basis" -> "" (cartesian)
                      -----
  H (Hydrogen)
  ------------
            Exponent  Coefficients 
       -------------- ---------------------------------------------------------
  1 S  1.87311370E+01  0.033495
  1 S  2.82539370E+00  0.234727
  1 S  6.40121700E-01  0.813757

  2 S  1.61277800E-01  1.000000



 Summary of "ao basis" -> "" (cartesian)
 ------------------------------------------------------------------------------
       Tag                 Description            Shells   Functions and Types
 ---------------- ------------------------------  ------  ---------------------
 H                           6-31g                   2        2   2s



                                NWChem WFN1 Module
                                ------------------



          No. of electrons :     2
           Alpha electrons :     2
            Beta electrons :     0
          Charge           :     0
          Spin multiplicity:     3

 HvD: wfn1_inpdft
 HvD: nquad_task =                     1
 HvD: iangquad   =                     0
 HvD: gridtype   = user      
 HvD: leb        =  T
 HvD: radgrid    = murakn    
 HvD: trunc_neigh=  T
 HvD: lssw       =  T
 HvD: whichssw   = erf1    
 HvD: mxnrad     =                     0
 HvD: mxnang     =                     0
 HVD: wfn1: movecs_in  = atomic                                                                                                                                                                                                                                                          
 HVD: wfn1: movecs_out = ./wfn1_dat.movecs                                                                                                                                                                                                                                               

      Superposition of Atomic Density Guess
      -------------------------------------

 Sum of atomic energies:          -0.99646508

      Non-variational initial energy
      ------------------------------

 Total energy =      -0.706264
 1-e energy   =      -1.602381
 2-e energy   =       0.592045
 HOMO         =      -0.298830
 LUMO         =      -0.070417

 iteration              energy           error
 ---------              ------           -----
         0         -0.96321856        0.080000
         1         -0.96399722        0.080000
         2         -0.96412543        0.080000
         3         -0.96487069        0.080000
         4         -0.96564419        0.080000
         5         -0.96617139        0.080000
         6         -0.96675405        0.080000
         7         -0.96804754        0.080000
         8         -0.96828582        0.080000
         9         -0.96830035        0.080000
        10         -0.96833189        0.080000
        11         -0.96879422        0.080000
        12         -0.96993709        0.080000
        13         -0.97081749        0.080000
        14         -0.97175189        0.080000
        15         -0.97189921        0.080000
        16         -0.97302006        0.080000
        17         -0.97343320        0.080000
        18         -0.97400534        0.080000
        19         -0.97400917        0.080000
        20         -0.97476233        0.080000
        21         -0.97535229        0.080000
        22         -0.97536622        0.080000
        23         -0.97537736        0.080000
        24         -0.97538786        0.080000
        25         -0.97554896        0.080000
        26         -0.97576563        0.080000
        27         -0.97580911        0.078446
        28         -0.97582460        0.047551
        29         -0.97583197        0.047551
        30         -0.97584887        0.047551
        31         -0.97585337        0.024237
        32         -0.97585557        0.021592
        33         -0.97586135        0.021592
        34         -0.97586152        0.021592
        35         -0.97586452        0.013088
        36         -0.97586544        0.013088
        37         -0.97586709        0.011660
        38         -0.97586919        0.011660
        39         -0.97587012        0.010189
        40         -0.97587116        0.007487
        41         -0.97587141        0.006419
        42         -0.97587143        0.005502
        43         -0.97587165        0.005502
        44         -0.97587192        0.005502
        45         -0.97587230        0.004717
        46         -0.97587233        0.004717
        47         -0.97587242        0.004202
        48         -0.97587243        0.004202
        49         -0.97587278        0.004202
        50         -0.97587285        0.003672
        51         -0.97587297        0.002313
        52         -0.97587301        0.002313
        53         -0.97587303        0.002313
        54         -0.97587324        0.002313
        55         -0.97587326        0.001983
        56         -0.97587328        0.001983
        57         -0.97587330        0.001983
        58         -0.97587332        0.001514
        59         -0.97587333        0.001134
        60         -0.97587335        0.000818
        61         -0.97587336        0.000589
        62         -0.97587336        0.000425
        63         -0.97587336        0.000425
        64         -0.97587336        0.000182
        65         -0.97587336        0.000159
        66         -0.97587336        0.000136
        67         -0.97587336        0.000098
        68         -0.97587336        0.000098
        69         -0.97587336        0.000098
        70         -0.97587336        0.000084
        71         -0.97587336        0.000075
        72         -0.97587336        0.000075
        73         -0.97587336        0.000075
        74         -0.97587336        0.000075
        75         -0.97587336        0.000064
        76         -0.97587336        0.000058
        77         -0.97587336        0.000050
        78         -0.97587336        0.000050
        79         -0.97587336        0.000043
        80         -0.97587336        0.000043
        81         -0.97587336        0.000032
        82         -0.97587336        0.000032
        83         -0.97587336        0.000032
        84         -0.97587336        0.000023
        85         -0.97587336        0.000017
        86         -0.97587336        0.000015
        87         -0.97587336        0.000013
        88         -0.97587336        0.000013
        89         -0.97587336        0.000013
        90         -0.97587336        0.000011
        91         -0.97587336        0.000007
        92         -0.97587336        0.000007
        93         -0.97587336        0.000007
        94         -0.97587336        0.000006
        95         -0.97587336        0.000006
        96         -0.97587336        0.000005
        97         -0.97587336        0.000005
        98         -0.97587336        0.000005
        99         -0.97587336        0.000005
       100         -0.97587336        0.000004
       101         -0.97587336        0.000004
       102         -0.97587336        0.000002
       103         -0.97587336        0.000002
       104         -0.97587336        0.000002
       105         -0.97587336        0.000002
       106         -0.97587336        0.000002
       107         -0.97587336        0.000001
       108         -0.97587336        0.000001
       109         -0.97587336        0.000001
       110         -0.97587336        0.000001
       111         -0.97587336        0.000001
       112         -0.97587336        0.000001

 Reached Convergence

 WFN1                     :
 --------------------------
 Total WFN1 energy  =          -0.9758733607
 1-Electron energy  =          -1.5574884474
 2-Electron energy  =           0.2775428294
 Correlation energy =           0.0000000000
 DFT XC energy      =           0.0000000000
 Entropy energy     =           0.0000000000
 Nuclear energy     =           0.3040722573

 conventional Hartree-Fock:
 --------------------------
 Total SCF energy  =          -0.9758733607
 2-Electron energy =           0.2775428294

                WFN1 Final Natural orbital energies and occupations
                ---------------------------------------------------

              Alpha       Beta            Alpha       Beta  
            --------    --------        --------    --------
       1      0.0000      0.0000          1.0000      0.0000
       2      0.0000      0.0000          1.0000      0.0000
       3      0.0000      0.0000          0.0000      0.0000
       4      0.0000      0.0000          0.0000      0.0000

             WFN1 Final Correlation function energies and occupations
             --------------------------------------------------------

              Alpha       Beta            Alpha       Beta  
            --------    --------        --------    --------
       1      0.0000      0.0000          1.0000      0.0000
       2      0.0000      0.0000          1.0000      0.0000
       3      0.0000      0.0000          0.0000      0.0000
       4      0.0000      0.0000          0.0000      0.0000

                WFN1 Final alpha-alpha 2-matrix occupation numbers
                --------------------------------------------------


 global array: g_momo1[1:4,1:4],  handle: -990 

            1           2           3           4  
       ----------- ----------- ----------- -----------
   1       0.00000     1.00000     0.00000     0.00000
   2       1.00000    -0.00000     0.00000     0.00000
   3       0.00000     0.00000    -0.00000     0.00000
   4       0.00000     0.00000     0.00000    -0.00000

                 WFN1 Final beta-beta 2-matrix occupation numbers
                 ------------------------------------------------


 global array: g_momo2[1:4,1:4],  handle: -989 

            1           2           3           4  
       ----------- ----------- ----------- -----------
   1       0.00000     0.00000     0.00000     0.00000
   2       0.00000     0.00000     0.00000     0.00000
   3       0.00000     0.00000     0.00000     0.00000
   4       0.00000     0.00000     0.00000     0.00000

                  WFN1 Final alpha Correlation Function Analysis
                  ----------------------------------------------


 global array: Ca[1:4,1:4],  handle: -981 

                     1                       2                       3                       4  
       ----------------------- ----------------------- ----------------------- -----------------------
   1       0.95843,    0.03138    -0.28354,    0.00619    -0.00000,   -0.00000     0.00000,    0.00000
   2      -0.28258,   -0.02413    -0.95849,   -0.02935     0.00000,    0.00000    -0.00000,    0.00000
   3       0.00000,   -0.00000     0.00000,   -0.00000     0.16530,    0.75257     0.14140,    0.62154
   4      -0.00000,   -0.00000    -0.00000,   -0.00000    -0.48738,   -0.41081     0.59284,    0.49218

                   WFN1 Final beta Correlation Function Analysis
                   ---------------------------------------------


 global array: Cb[1:4,1:4],  handle: -980 

                     1                       2                       3                       4  
       ----------------------- ----------------------- ----------------------- -----------------------
   1       0.95105,    0.04260    -0.29511,   -0.02553    -0.05061,    0.03946     0.03489,   -0.02461
   2      -0.29917,    0.00654    -0.95282,   -0.01923    -0.03335,    0.00745    -0.00562,   -0.03201
   3      -0.01793,    0.01055    -0.01342,   -0.03192     0.12488,    0.76737     0.09033,    0.62109
   4      -0.01881,   -0.05788     0.00015,    0.05320    -0.50845,   -0.36295     0.62344,    0.46317

                     WFN1 Final Alpha Natural Orbital Analysis
                     -----------------------------------------

 Vector    1  Occ=1.000000D+00  E= 0.000000D+00
              MO Center=  0.0D+00,  0.0D+00,  1.1D-02, r^2= 1.4D+00
   Bfn.  Coefficient  Atom+Function         Bfn.  Coefficient  Atom+Function  
  ----- ------------  ---------------      ----- ------------  ---------------
     4     -0.398893  2 H  s                  2     -0.391838  1 H  s          
     3     -0.295903  2 H  s                  1     -0.292023  1 H  s          

 Vector    2  Occ=1.000000D+00  E= 0.000000D+00
              MO Center=  0.0D+00,  0.0D+00, -1.1D-02, r^2= 1.8D+00
   Bfn.  Coefficient  Atom+Function         Bfn.  Coefficient  Atom+Function  
  ----- ------------  ---------------      ----- ------------  ---------------
     2      0.594288  1 H  s                  4     -0.589576  2 H  s          
     1      0.327346  1 H  s                  3     -0.323842  2 H  s          

 Vector    3  Occ=7.744201D-15  E= 0.000000D+00
              MO Center=  0.0D+00,  0.0D+00, -2.3D-02, r^2= 2.5D+00
   Bfn.  Coefficient  Atom+Function         Bfn.  Coefficient  Atom+Function  
  ----- ------------  ---------------      ----- ------------  ---------------
     2      1.093155  1 H  s                  4     -1.076477  2 H  s          
     1     -0.906515  1 H  s                  3      0.885093  2 H  s          

 Vector    4  Occ=3.205716D-14  E= 0.000000D+00
              MO Center=  0.0D+00,  0.0D+00,  2.3D-02, r^2= 1.9D+00
   Bfn.  Coefficient  Atom+Function         Bfn.  Coefficient  Atom+Function  
  ----- ------------  ---------------      ----- ------------  ---------------
     3      0.917164  2 H  s                  1      0.895996  1 H  s          
     4     -0.718603  2 H  s                  2     -0.692969  1 H  s          


                     WFN1 Final Beta Natural Orbital Analysis
                     ----------------------------------------

 Vector    1  Occ=0.000000D+00  E= 0.000000D+00
              MO Center=  0.0D+00,  0.0D+00,  2.9D-02, r^2= 1.5D+00
   Bfn.  Coefficient  Atom+Function         Bfn.  Coefficient  Atom+Function  
  ----- ------------  ---------------      ----- ------------  ---------------
     4     -0.451341  2 H  s                  2     -0.429877  1 H  s          
     3     -0.237756  2 H  s                  1     -0.230348  1 H  s          

 Vector    2  Occ=0.000000D+00  E= 0.000000D+00
              MO Center=  0.0D+00,  0.0D+00, -3.1D-02, r^2= 2.0D+00
   Bfn.  Coefficient  Atom+Function         Bfn.  Coefficient  Atom+Function  
  ----- ------------  ---------------      ----- ------------  ---------------
     2      0.726935  1 H  s                  4     -0.661022  2 H  s          
     3     -0.268746  2 H  s                  1      0.204830  1 H  s          

 Vector    3  Occ=0.000000D+00  E= 0.000000D+00
              MO Center=  0.0D+00,  0.0D+00,  9.6D-03, r^2= 2.3D+00
   Bfn.  Coefficient  Atom+Function         Bfn.  Coefficient  Atom+Function  
  ----- ------------  ---------------      ----- ------------  ---------------
     4     -1.025793  2 H  s                  2      1.018907  1 H  s          
     3      0.927874  2 H  s                  1     -0.918548  1 H  s          

 Vector    4  Occ=0.000000D+00  E= 0.000000D+00
              MO Center=  0.0D+00,  0.0D+00, -7.5D-03, r^2= 1.8D+00
   Bfn.  Coefficient  Atom+Function         Bfn.  Coefficient  Atom+Function  
  ----- ------------  ---------------      ----- ------------  ---------------
     1      0.937158  1 H  s                  3      0.909565  2 H  s          
     4     -0.699285  2 H  s                  2     -0.656132  1 H  s          


 Task  times  cpu:       12.9s     wall:       19.7s
 Summary of allocated global arrays
-----------------------------------
  No active global arrays



                         GA Statistics for process    0
                         ------------------------------

       create   destroy   get      put      acc     scatter   gather  read&inc
calls:   44       44     6.98e+06 2.42e+04 1.91e+04    0        0       11     
number of processes/call 1.00e+00 1.00e+00 1.00e+00 0.00e+00 0.00e+00
bytes total:             8.98e+08 4.27e+06 3.05e+06 0.00e+00 0.00e+00 8.80e+01
bytes remote:            0.00e+00 0.00e+00 0.00e+00 0.00e+00 0.00e+00 0.00e+00
Max memory consumed for GA by this process: 10624 bytes
MA_summarize_allocated_blocks: starting scan ...
MA_summarize_allocated_blocks: scan completed: 0 heap blocks, 0 stack blocks
MA usage statistics:

	allocation statistics:
					      heap	     stack
					      ----	     -----
	current number of blocks	         0	         0
	maximum number of blocks	        19	        17
	current total bytes		         0	         0
	maximum total bytes		   3204344	  22508664
	maximum total K-bytes		      3205	     22509
	maximum total M-bytes		         4	        23


                                NWChem Input Module
                                -------------------





                                     CITATION
                                     --------
                Please cite the following reference when publishing
                           results obtained with NWChem:

                 M. Valiev, E.J. Bylaska, N. Govind, K. Kowalski,
              T.P. Straatsma, H.J.J. van Dam, D. Wang, J. Nieplocha,
                        E. Apra, T.L. Windus, W.A. de Jong
                 "NWChem: a comprehensive and scalable open-source
                  solution for large scale molecular simulations"
                      Comput. Phys. Commun. 181, 1477 (2010)
                           doi:10.1016/j.cpc.2010.04.018

                                      AUTHORS
                                      -------
          E. Apra, E. J. Bylaska, W. A. de Jong, N. Govind, K. Kowalski,
       T. P. Straatsma, M. Valiev, H. J. J. van Dam, D. Wang, T. L. Windus,
        J. Hammond, J. Autschbach, K. Bhaskaran-Nair, J. Brabec, K. Lopata,
    S. A. Fischer, S. Krishnamoorthy, M. Jacquelin, W. Ma, M. Klemm, O. Villa,
      Y. Chen, V. Anisimov, F. Aquino, S. Hirata, M. T. Hackler, V. Konjkov,
      T. Risthaus, M. Malagoli, A. Marenich, A. Otero-de-la-Roza, J. Mullin,
        P. Nichols, R. Peverati, J. Pittner, Y. Zhao, P.-D. Fan, A. Fonari,
       M. Williamson, R. J. Harrison, J. R. Rehr, M. Dupuis, D. Silverstein,
    D. M. A. Smith, J. Nieplocha, V. Tipparaju, M. Krishnan, B. E. Van Kuiken,
        A. Vazquez-Mayagoitia, L. Jensen, M. Swart, Q. Wu, T. Van Voorhis,
     A. A. Auer, M. Nooijen, L. D. Crosby, E. Brown, G. Cisneros, G. I. Fann,
   H. Fruchtl, J. Garza, K. Hirao, R. A. Kendall, J. A. Nichols, K. Tsemekhman,
    K. Wolinski, J. Anchell, D. E. Bernholdt, P. Borowski, T. Clark, D. Clerc,
   H. Dachsel, M. J. O. Deegan, K. Dyall, D. Elwood, E. Glendening, M. Gutowski,
   A. C. Hess, J. Jaffe, B. G. Johnson, J. Ju, R. Kobayashi, R. Kutteh, Z. Lin,
   R. Littlefield, X. Long, B. Meng, T. Nakajima, S. Niu, L. Pollack, M. Rosing,
   K. Glaesemann, G. Sandrone, M. Stave, H. Taylor, G. Thomas, J. H. van Lenthe,
                               A. T. Wong, Z. Zhang.

 Total times  cpu:       12.9s     wall:       19.7s
