 argument  1 = input-wf.nw



============================== echo of input deck ==============================
echo
start wfn1_dat
geometry units au noautoz
  H 0 0 -4.94434600000000000000
  H 0 0  4.94434600000000000000
  symmetry cs
end
basis
  H library 6-31g
end
set wfn1:input_vectors "atomic"
set wfn1:solver "monte-carlo"
set wfn1:print_error F
set wfn1:t_initial 0.1
set wfn1:nopen 2
#set wfn1:corr_expr "wfn1_mx"
set wfn1:corr_expr "wfn1c"
set wfn1:t_bath 0.0
set wfn1:maxit  20000
task wfn1 energy
================================================================================


                                         
                                         


              Northwest Computational Chemistry Package (NWChem) 6.8
              ------------------------------------------------------


                    Environmental Molecular Sciences Laboratory
                       Pacific Northwest National Laboratory
                                Richland, WA 99352

                              Copyright (c) 1994-2015
                       Pacific Northwest National Laboratory
                            Battelle Memorial Institute

             NWChem is an open-source computational chemistry package
                        distributed under the terms of the
                      Educational Community License (ECL) 2.0
             A copy of the license is included with this distribution
                              in the LICENSE.TXT file

                                  ACKNOWLEDGMENT
                                  --------------

            This software and its documentation were developed at the
            EMSL at Pacific Northwest National Laboratory, a multiprogram
            national laboratory, operated for the U.S. Department of Energy
            by Battelle under Contract Number DE-AC05-76RL01830. Support
            for this work was provided by the Department of Energy Office
            of Biological and Environmental Research, Office of Basic
            Energy Sciences, and the Office of Advanced Scientific Computing.


           Job information
           ---------------

    hostname        = erato
    program         = ../../../bin/LINUX64/nwchem
    date            = Sat Mar  6 01:47:53 2021

    compiled        = Sat_Mar_06_01:07:04_2021
    source          = /home/hvandam/nwchem-1-wfn1
    nwchem branch   = Development
    nwchem revision = nwchem_on_git-124-gad72d19fff205e319ffbbf2bca37a04ded6ad57b
    ga revision     = nwchem_on_git-124-gad72d19
    use scalapack   = F
    input           = input-wf.nw
    prefix          = wfn1_dat.
    data base       = ./wfn1_dat.db
    status          = startup
    nproc           =        1
    time left       =     -1s



           Memory information
           ------------------

    heap     =   13107196 doubles =    100.0 Mbytes
    stack    =   13107201 doubles =    100.0 Mbytes
    global   =   26214400 doubles =    200.0 Mbytes (distinct from heap & stack)
    total    =   52428797 doubles =    400.0 Mbytes
    verify   = yes
    hardfail = no 


           Directory information
           ---------------------

  0 permanent = .
  0 scratch   = .




                                NWChem Input Module
                                -------------------


 Turning off AUTOSYM since
 SYMMETRY directive was detected!



                             Geometry "geometry" -> ""
                             -------------------------

 Output coordinates in a.u. (scale by  1.000000000 to convert to a.u.)

  No.       Tag          Charge          X              Y              Z
 ---- ---------------- ---------- -------------- -------------- --------------
    1 H                    1.0000     0.00000000     0.00000000    -4.94434600
    2 H                    1.0000     0.00000000     0.00000000     4.94434600

      Atomic Mass 
      ----------- 

      H                  1.007825


 Effective nuclear repulsion energy (a.u.)       0.1011256089

            Nuclear Dipole moment (a.u.) 
            ----------------------------
        X                 Y               Z
 ---------------- ---------------- ----------------
     0.0000000000     0.0000000000     0.0000000000

      Symmetry information
      --------------------

 Group name             Cs        
 Group number              2
 Group order               2
 No. of unique centers     1

      Symmetry unique atoms

     1


            XYZ format geometry
            -------------------
     2
 geometry
 H                     0.00000000     0.00000000    -2.61643541
 H                     0.00000000     0.00000000     2.61643541

                      Basis "ao basis" -> "" (cartesian)
                      -----
  H (Hydrogen)
  ------------
            Exponent  Coefficients 
       -------------- ---------------------------------------------------------
  1 S  1.87311370E+01  0.033495
  1 S  2.82539370E+00  0.234727
  1 S  6.40121700E-01  0.813757

  2 S  1.61277800E-01  1.000000



 Summary of "ao basis" -> "" (cartesian)
 ------------------------------------------------------------------------------
       Tag                 Description            Shells   Functions and Types
 ---------------- ------------------------------  ------  ---------------------
 H                           6-31g                   2        2   2s



                                NWChem WFN1 Module
                                ------------------



          No. of electrons :     2
           Alpha electrons :     2
            Beta electrons :     0
          Charge           :     0
          Spin multiplicity:     3

 HvD: wfn1_inpdft
 HvD: nquad_task =                     1
 HvD: iangquad   =                     0
 HvD: gridtype   = user      
 HvD: leb        =  T
 HvD: radgrid    = murakn    
 HvD: trunc_neigh=  T
 HvD: lssw       =  T
 HvD: whichssw   = erf1    
 HvD: mxnrad     =                     0
 HvD: mxnang     =                     0
 HVD: wfn1: movecs_in  = atomic                                                                                                                                                                                                                                                          
 HVD: wfn1: movecs_out = ./wfn1_dat.movecs                                                                                                                                                                                                                                               

      Superposition of Atomic Density Guess
      -------------------------------------

 Sum of atomic energies:          -0.99646508

      Non-variational initial energy
      ------------------------------

 Total energy =      -0.682110
 1-e energy   =      -1.198717
 2-e energy   =       0.415482
 HOMO         =      -0.191406
 LUMO         =      -0.190966

 iteration              energy           error
 ---------              ------           -----
         0         -0.98469742        0.080000
         1         -0.98565975        0.080000
         2         -0.98693903        0.080000
         3         -0.98819892        0.080000
         4         -0.98956940        0.080000
         5         -0.98985981        0.080000
         6         -0.99057261        0.080000
         7         -0.99075576        0.080000
         8         -0.99094601        0.080000
         9         -0.99200048        0.080000
        10         -0.99213735        0.080000
        11         -0.99272704        0.080000
        12         -0.99273690        0.080000
        13         -0.99275154        0.080000
        14         -0.99309785        0.080000
        15         -0.99375496        0.080000
        16         -0.99408184        0.080000
        17         -0.99421457        0.080000
        18         -0.99445218        0.080000
        19         -0.99473986        0.080000
        20         -0.99497260        0.080000
        21         -0.99557057        0.080000
        22         -0.99562283        0.080000
        23         -0.99562615        0.080000
        24         -0.99563648        0.080000
        25         -0.99589066        0.080000
        26         -0.99601002        0.080000
        27         -0.99618528        0.080000
        28         -0.99631294        0.080000
        29         -0.99632458        0.056547
        30         -0.99633050        0.056547
        31         -0.99635150        0.049416
        32         -0.99637249        0.043184
        33         -0.99639840        0.043184
        34         -0.99642422        0.043184
        35         -0.99642614        0.037019
        36         -0.99643354        0.027731
        37         -0.99643977        0.027731
        38         -0.99644051        0.023772
        39         -0.99644135        0.020774
        40         -0.99644666        0.020774
        41         -0.99644716        0.020774
        42         -0.99645484        0.020774
        43         -0.99645550        0.017808
        44         -0.99645632        0.017808
        45         -0.99645814        0.011436
        46         -0.99645928        0.007067
        47         -0.99645965        0.007067
        48         -0.99645971        0.007067
        49         -0.99646025        0.007067
        50         -0.99646167        0.007067
        51         -0.99646289        0.006058
        52         -0.99646332        0.006058
        53         -0.99646371        0.005608
        54         -0.99646396        0.005608
        55         -0.99646398        0.004901
        56         -0.99646399        0.004901
        57         -0.99646401        0.004901
        58         -0.99646404        0.004901
        59         -0.99646451        0.004901
        60         -0.99646488        0.004901
        61         -0.99646498        0.004283
        62         -0.99646512        0.004042
        63         -0.99646524        0.004042
        64         -0.99646529        0.004042
        65         -0.99646553        0.003465
        66         -0.99646562        0.003465
        67         -0.99646562        0.002183
        68         -0.99646565        0.001908
        69         -0.99646568        0.001908
        70         -0.99646569        0.001908
        71         -0.99646569        0.001635
        72         -0.99646572        0.001635
        73         -0.99646575        0.001635
        74         -0.99646576        0.001635
        75         -0.99646576        0.001457
        76         -0.99646578        0.001457
        77         -0.99646580        0.001323
        78         -0.99646581        0.001323
        79         -0.99646582        0.001156
        80         -0.99646583        0.001156
        81         -0.99646583        0.000714
        82         -0.99646583        0.000714
        83         -0.99646583        0.000714
        84         -0.99646584        0.000525
        85         -0.99646584        0.000525
        86         -0.99646585        0.000393
        87         -0.99646585        0.000393
        88         -0.99646585        0.000344
        89         -0.99646585        0.000344
        90         -0.99646585        0.000253
        91         -0.99646585        0.000253
        92         -0.99646585        0.000253
        93         -0.99646585        0.000253
        94         -0.99646585        0.000253
        95         -0.99646585        0.000156
        96         -0.99646585        0.000156
        97         -0.99646585        0.000156
        98         -0.99646585        0.000156
        99         -0.99646585        0.000156
       100         -0.99646585        0.000144
       101         -0.99646585        0.000144
       102         -0.99646585        0.000144
       103         -0.99646585        0.000144
       104         -0.99646585        0.000095
       105         -0.99646585        0.000072
       106         -0.99646585        0.000052
       107         -0.99646585        0.000052
       108         -0.99646585        0.000045
       109         -0.99646585        0.000045
       110         -0.99646585        0.000039
       111         -0.99646585        0.000034
       112         -0.99646585        0.000034
       113         -0.99646585        0.000025
       114         -0.99646585        0.000021
       115         -0.99646585        0.000018
       116         -0.99646585        0.000018
       117         -0.99646585        0.000013
       118         -0.99646585        0.000012
       119         -0.99646585        0.000012
       120         -0.99646585        0.000012
       121         -0.99646585        0.000010
       122         -0.99646585        0.000010
       123         -0.99646585        0.000009
       124         -0.99646585        0.000008
       125         -0.99646585        0.000008
       126         -0.99646585        0.000005
       127         -0.99646585        0.000004
       128         -0.99646585        0.000004
       129         -0.99646585        0.000003
       130         -0.99646585        0.000003
       131         -0.99646585        0.000003
       132         -0.99646585        0.000003
       133         -0.99646585        0.000003
       134         -0.99646585        0.000003
       135         -0.99646585        0.000002
       136         -0.99646585        0.000002
       137         -0.99646585        0.000002
       138         -0.99646585        0.000002
       139         -0.99646585        0.000002
       140         -0.99646585        0.000001
       141         -0.99646585        0.000001
       142         -0.99646585        0.000001
       143         -0.99646585        0.000001
       144         -0.99646585        0.000001
       145         -0.99646585        0.000001

 Reached Convergence

 WFN1                     :
 --------------------------
 Total WFN1 energy  =          -0.9964658509
 1-Electron energy  =          -1.1987170948
 2-Electron energy  =           0.1011256350
 Correlation energy =           0.0000000000
 DFT XC energy      =           0.0000000000
 Entropy energy     =           0.0000000000
 Nuclear energy     =           0.1011256089

 conventional Hartree-Fock:
 --------------------------
 Total SCF energy  =          -0.9964658509
 2-Electron energy =           0.1011256350

                WFN1 Final Natural orbital energies and occupations
                ---------------------------------------------------

              Alpha       Beta            Alpha       Beta  
            --------    --------        --------    --------
       1      0.0000      0.0000          1.0000      0.0000
       2      0.0000      0.0000          1.0000      0.0000
       3      0.0000      0.0000          0.0000      0.0000
       4      0.0000      0.0000          0.0000      0.0000

             WFN1 Final Correlation function energies and occupations
             --------------------------------------------------------

              Alpha       Beta            Alpha       Beta  
            --------    --------        --------    --------
       1      0.0000      0.0000          1.0000      0.0000
       2      0.0000      0.0000          1.0000      0.0000
       3      0.0000      0.0000          0.0000      0.0000
       4      0.0000      0.0000          0.0000      0.0000

                WFN1 Final alpha-alpha 2-matrix occupation numbers
                --------------------------------------------------


 global array: g_momo1[1:4,1:4],  handle: -990 

            1           2           3           4  
       ----------- ----------- ----------- -----------
   1      -0.00000     1.00000     0.00000     0.00000
   2       1.00000     0.00000     0.00000     0.00000
   3       0.00000     0.00000    -0.00000     0.00000
   4       0.00000     0.00000     0.00000    -0.00000

                 WFN1 Final beta-beta 2-matrix occupation numbers
                 ------------------------------------------------


 global array: g_momo2[1:4,1:4],  handle: -989 

            1           2           3           4  
       ----------- ----------- ----------- -----------
   1       0.00000     0.00000     0.00000     0.00000
   2       0.00000     0.00000     0.00000     0.00000
   3       0.00000     0.00000     0.00000     0.00000
   4       0.00000     0.00000     0.00000     0.00000

                  WFN1 Final alpha Correlation Function Analysis
                  ----------------------------------------------


 global array: Ca[1:4,1:4],  handle: -977 

                     1                       2                       3                       4  
       ----------------------- ----------------------- ----------------------- -----------------------
   1       0.16362,   -0.70910     0.15316,   -0.66854    -0.00000,    0.00000     0.00000,   -0.00000
   2       0.64339,   -0.23759    -0.68228,    0.25316    -0.00000,    0.00000     0.00000,   -0.00000
   3       0.00000,    0.00000     0.00000,   -0.00000    -0.40957,    0.58426    -0.40322,    0.57299
   4       0.00000,   -0.00000    -0.00000,   -0.00000     0.57782,   -0.39626    -0.58917,    0.40247

                   WFN1 Final beta Correlation Function Analysis
                   ---------------------------------------------


 global array: Cb[1:4,1:4],  handle: -976 

                     1                       2                       3                       4  
       ----------------------- ----------------------- ----------------------- -----------------------
   1       0.19445,   -0.66666     0.20041,   -0.68611    -0.05052,    0.06052     0.00339,    0.02471
   2       0.65834,   -0.28825    -0.63624,    0.27863     0.03126,    0.00448    -0.00017,   -0.00785
   3      -0.01302,    0.02922    -0.02269,    0.06023    -0.39161,    0.57620    -0.40091,    0.59055
   4       0.00585,   -0.01395     0.01311,   -0.04825     0.59508,   -0.39155    -0.58316,    0.38700

                     WFN1 Final Alpha Natural Orbital Analysis
                     -----------------------------------------

 Vector    1  Occ=1.000000D+00  E= 0.000000D+00
              MO Center=  0.0D+00,  0.0D+00, -3.1D-02, r^2= 7.6D+00
   Bfn.  Coefficient  Atom+Function         Bfn.  Coefficient  Atom+Function  
  ----- ------------  ---------------      ----- ------------  ---------------
     2     -0.473441  1 H  s                  4     -0.467811  2 H  s          
     1     -0.303876  1 H  s                  3     -0.300257  2 H  s          

 Vector    2  Occ=1.000000D+00  E= 0.000000D+00
              MO Center=  0.0D+00,  0.0D+00,  3.1D-02, r^2= 7.6D+00
   Bfn.  Coefficient  Atom+Function         Bfn.  Coefficient  Atom+Function  
  ----- ------------  ---------------      ----- ------------  ---------------
     4     -0.473261  2 H  s                  2      0.467629  1 H  s          
     3     -0.304208  2 H  s                  1      0.300593  1 H  s          

 Vector    3  Occ=1.422870D-15  E= 0.000000D+00
              MO Center=  0.0D+00,  0.0D+00, -3.1D-01, r^2= 8.0D+00
   Bfn.  Coefficient  Atom+Function         Bfn.  Coefficient  Atom+Function  
  ----- ------------  ---------------      ----- ------------  ---------------
     1     -0.941232  1 H  s                  2      0.860066  1 H  s          
     3     -0.834173  2 H  s                  4      0.762163  2 H  s          

 Vector    4  Occ=7.250424D-15  E= 0.000000D+00
              MO Center=  0.0D+00,  0.0D+00,  3.1D-01, r^2= 8.0D+00
   Bfn.  Coefficient  Atom+Function         Bfn.  Coefficient  Atom+Function  
  ----- ------------  ---------------      ----- ------------  ---------------
     3      0.941388  2 H  s                  4     -0.860835  2 H  s          
     1     -0.834350  1 H  s                  2      0.763031  1 H  s          


                     WFN1 Final Beta Natural Orbital Analysis
                     ----------------------------------------

 Vector    1  Occ=0.000000D+00  E= 0.000000D+00
              MO Center=  0.0D+00,  0.0D+00, -1.5D-01, r^2= 7.8D+00
   Bfn.  Coefficient  Atom+Function         Bfn.  Coefficient  Atom+Function  
  ----- ------------  ---------------      ----- ------------  ---------------
     2     -0.576868  1 H  s                  4     -0.519063  2 H  s          
     3     -0.222425  2 H  s                  1     -0.203607  1 H  s          

 Vector    2  Occ=0.000000D+00  E= 0.000000D+00
              MO Center=  0.0D+00,  0.0D+00,  1.6D-01, r^2= 7.7D+00
   Bfn.  Coefficient  Atom+Function         Bfn.  Coefficient  Atom+Function  
  ----- ------------  ---------------      ----- ------------  ---------------
     2      0.513241  1 H  s                  4     -0.495262  2 H  s          
     3     -0.299129  2 H  s                  1      0.228809  1 H  s          

 Vector    3  Occ=0.000000D+00  E= 0.000000D+00
              MO Center=  0.0D+00,  0.0D+00,  4.0D-02, r^2= 7.9D+00
   Bfn.  Coefficient  Atom+Function         Bfn.  Coefficient  Atom+Function  
  ----- ------------  ---------------      ----- ------------  ---------------
     1     -0.913962  1 H  s                  3     -0.913996  2 H  s          
     4      0.786045  2 H  s                  2      0.738998  1 H  s          

 Vector    4  Occ=0.000000D+00  E= 0.000000D+00
              MO Center=  0.0D+00,  0.0D+00, -4.3D-02, r^2= 8.0D+00
   Bfn.  Coefficient  Atom+Function         Bfn.  Coefficient  Atom+Function  
  ----- ------------  ---------------      ----- ------------  ---------------
     1     -0.914121  1 H  s                  3      0.889052  2 H  s          
     4     -0.795095  2 H  s                  2      0.788951  1 H  s          


 Task  times  cpu:       15.1s     wall:       22.9s
 Summary of allocated global arrays
-----------------------------------
  No active global arrays



                         GA Statistics for process    0
                         ------------------------------

       create   destroy   get      put      acc     scatter   gather  read&inc
calls:   44       44     8.88e+06 3.07e+04 2.43e+04    0        0       10     
number of processes/call 1.00e+00 1.00e+00 1.00e+00 0.00e+00 0.00e+00
bytes total:             1.14e+09 5.43e+06 3.88e+06 0.00e+00 0.00e+00 8.00e+01
bytes remote:            0.00e+00 0.00e+00 0.00e+00 0.00e+00 0.00e+00 0.00e+00
Max memory consumed for GA by this process: 10624 bytes
MA_summarize_allocated_blocks: starting scan ...
MA_summarize_allocated_blocks: scan completed: 0 heap blocks, 0 stack blocks
MA usage statistics:

	allocation statistics:
					      heap	     stack
					      ----	     -----
	current number of blocks	         0	         0
	maximum number of blocks	        19	        17
	current total bytes		         0	         0
	maximum total bytes		   3204360	  22508648
	maximum total K-bytes		      3205	     22509
	maximum total M-bytes		         4	        23


                                NWChem Input Module
                                -------------------





                                     CITATION
                                     --------
                Please cite the following reference when publishing
                           results obtained with NWChem:

                 M. Valiev, E.J. Bylaska, N. Govind, K. Kowalski,
              T.P. Straatsma, H.J.J. van Dam, D. Wang, J. Nieplocha,
                        E. Apra, T.L. Windus, W.A. de Jong
                 "NWChem: a comprehensive and scalable open-source
                  solution for large scale molecular simulations"
                      Comput. Phys. Commun. 181, 1477 (2010)
                           doi:10.1016/j.cpc.2010.04.018

                                      AUTHORS
                                      -------
          E. Apra, E. J. Bylaska, W. A. de Jong, N. Govind, K. Kowalski,
       T. P. Straatsma, M. Valiev, H. J. J. van Dam, D. Wang, T. L. Windus,
        J. Hammond, J. Autschbach, K. Bhaskaran-Nair, J. Brabec, K. Lopata,
    S. A. Fischer, S. Krishnamoorthy, M. Jacquelin, W. Ma, M. Klemm, O. Villa,
      Y. Chen, V. Anisimov, F. Aquino, S. Hirata, M. T. Hackler, V. Konjkov,
      T. Risthaus, M. Malagoli, A. Marenich, A. Otero-de-la-Roza, J. Mullin,
        P. Nichols, R. Peverati, J. Pittner, Y. Zhao, P.-D. Fan, A. Fonari,
       M. Williamson, R. J. Harrison, J. R. Rehr, M. Dupuis, D. Silverstein,
    D. M. A. Smith, J. Nieplocha, V. Tipparaju, M. Krishnan, B. E. Van Kuiken,
        A. Vazquez-Mayagoitia, L. Jensen, M. Swart, Q. Wu, T. Van Voorhis,
     A. A. Auer, M. Nooijen, L. D. Crosby, E. Brown, G. Cisneros, G. I. Fann,
   H. Fruchtl, J. Garza, K. Hirao, R. A. Kendall, J. A. Nichols, K. Tsemekhman,
    K. Wolinski, J. Anchell, D. E. Bernholdt, P. Borowski, T. Clark, D. Clerc,
   H. Dachsel, M. J. O. Deegan, K. Dyall, D. Elwood, E. Glendening, M. Gutowski,
   A. C. Hess, J. Jaffe, B. G. Johnson, J. Ju, R. Kobayashi, R. Kutteh, Z. Lin,
   R. Littlefield, X. Long, B. Meng, T. Nakajima, S. Niu, L. Pollack, M. Rosing,
   K. Glaesemann, G. Sandrone, M. Stave, H. Taylor, G. Thomas, J. H. van Lenthe,
                               A. T. Wong, Z. Zhang.

 Total times  cpu:       15.1s     wall:       22.9s
