 argument  1 = input-wf.nw



============================== echo of input deck ==============================
echo
start wfn1_dat
geometry units au noautoz
  H 0 0 -.49434600000000000000
  H 0 0  .49434600000000000000
  symmetry cs
end
basis
  H library 6-31g
end
set wfn1:input_vectors "atomic"
set wfn1:solver "monte-carlo"
set wfn1:print_error F
set wfn1:t_initial 0.1
set wfn1:nopen 2
#set wfn1:corr_expr "wfn1_mx"
set wfn1:corr_expr "wfn1c"
set wfn1:t_bath 0.0
set wfn1:maxit  20000
task wfn1 energy
================================================================================


                                         
                                         


              Northwest Computational Chemistry Package (NWChem) 6.8
              ------------------------------------------------------


                    Environmental Molecular Sciences Laboratory
                       Pacific Northwest National Laboratory
                                Richland, WA 99352

                              Copyright (c) 1994-2015
                       Pacific Northwest National Laboratory
                            Battelle Memorial Institute

             NWChem is an open-source computational chemistry package
                        distributed under the terms of the
                      Educational Community License (ECL) 2.0
             A copy of the license is included with this distribution
                              in the LICENSE.TXT file

                                  ACKNOWLEDGMENT
                                  --------------

            This software and its documentation were developed at the
            EMSL at Pacific Northwest National Laboratory, a multiprogram
            national laboratory, operated for the U.S. Department of Energy
            by Battelle under Contract Number DE-AC05-76RL01830. Support
            for this work was provided by the Department of Energy Office
            of Biological and Environmental Research, Office of Basic
            Energy Sciences, and the Office of Advanced Scientific Computing.


           Job information
           ---------------

    hostname        = erato
    program         = ../../../bin/LINUX64/nwchem
    date            = Sat Mar  6 01:15:55 2021

    compiled        = Sat_Mar_06_01:07:04_2021
    source          = /home/hvandam/nwchem-1-wfn1
    nwchem branch   = Development
    nwchem revision = nwchem_on_git-124-gad72d19fff205e319ffbbf2bca37a04ded6ad57b
    ga revision     = nwchem_on_git-124-gad72d19
    use scalapack   = F
    input           = input-wf.nw
    prefix          = wfn1_dat.
    data base       = ./wfn1_dat.db
    status          = startup
    nproc           =        1
    time left       =     -1s



           Memory information
           ------------------

    heap     =   13107196 doubles =    100.0 Mbytes
    stack    =   13107201 doubles =    100.0 Mbytes
    global   =   26214400 doubles =    200.0 Mbytes (distinct from heap & stack)
    total    =   52428797 doubles =    400.0 Mbytes
    verify   = yes
    hardfail = no 


           Directory information
           ---------------------

  0 permanent = .
  0 scratch   = .




                                NWChem Input Module
                                -------------------


 Turning off AUTOSYM since
 SYMMETRY directive was detected!



                             Geometry "geometry" -> ""
                             -------------------------

 Output coordinates in a.u. (scale by  1.000000000 to convert to a.u.)

  No.       Tag          Charge          X              Y              Z
 ---- ---------------- ---------- -------------- -------------- --------------
    1 H                    1.0000     0.00000000     0.00000000    -0.49434600
    2 H                    1.0000     0.00000000     0.00000000     0.49434600

      Atomic Mass 
      ----------- 

      H                  1.007825


 Effective nuclear repulsion energy (a.u.)       1.0114373334

            Nuclear Dipole moment (a.u.) 
            ----------------------------
        X                 Y               Z
 ---------------- ---------------- ----------------
     0.0000000000     0.0000000000     0.0000000000

      Symmetry information
      --------------------

 Group name             Cs        
 Group number              2
 Group order               2
 No. of unique centers     1

      Symmetry unique atoms

     1


            XYZ format geometry
            -------------------
     2
 geometry
 H                     0.00000000     0.00000000    -0.26159666
 H                     0.00000000     0.00000000     0.26159666

 ==============================================================================
                                internuclear distances
 ------------------------------------------------------------------------------
       center one      |      center two      | atomic units |       a.u.
 ------------------------------------------------------------------------------
    2 H                |   1 H                |     0.98869  |     0.98869
 ------------------------------------------------------------------------------
                         number of included internuclear distances:          1
 ==============================================================================



                      Basis "ao basis" -> "" (cartesian)
                      -----
  H (Hydrogen)
  ------------
            Exponent  Coefficients 
       -------------- ---------------------------------------------------------
  1 S  1.87311370E+01  0.033495
  1 S  2.82539370E+00  0.234727
  1 S  6.40121700E-01  0.813757

  2 S  1.61277800E-01  1.000000



 Summary of "ao basis" -> "" (cartesian)
 ------------------------------------------------------------------------------
       Tag                 Description            Shells   Functions and Types
 ---------------- ------------------------------  ------  ---------------------
 H                           6-31g                   2        2   2s



                                NWChem WFN1 Module
                                ------------------



          No. of electrons :     2
           Alpha electrons :     2
            Beta electrons :     0
          Charge           :     0
          Spin multiplicity:     3

 HvD: wfn1_inpdft
 HvD: nquad_task =                     1
 HvD: iangquad   =                     0
 HvD: gridtype   = user      
 HvD: leb        =  T
 HvD: radgrid    = murakn    
 HvD: trunc_neigh=  T
 HvD: lssw       =  T
 HvD: whichssw   = erf1    
 HvD: mxnrad     =                     0
 HvD: mxnang     =                     0
 HVD: wfn1: movecs_in  = atomic                                                                                                                                                                                                                                                          
 HVD: wfn1: movecs_out = ./wfn1_dat.movecs                                                                                                                                                                                                                                               

      Superposition of Atomic Density Guess
      -------------------------------------

 Sum of atomic energies:          -0.99646508

      Non-variational initial energy
      ------------------------------

 Total energy =      -0.801099
 1-e energy   =      -2.465058
 2-e energy   =       0.652521
 HOMO         =      -0.706820
 LUMO         =       0.230880

 iteration              energy           error
 ---------              ------           -----
         0         -0.53231216        0.080000
         1         -0.53530599        0.080000
         2         -0.53658785        0.080000
         3         -0.53814466        0.080000
         4         -0.54201639        0.080000
         5         -0.54387607        0.080000
         6         -0.54531040        0.080000
         7         -0.54656710        0.080000
         8         -0.54680687        0.080000
         9         -0.54805092        0.080000
        10         -0.54808014        0.080000
        11         -0.55003316        0.080000
        12         -0.55025722        0.080000
        13         -0.55135238        0.080000
        14         -0.55177785        0.080000
        15         -0.55265619        0.080000
        16         -0.55362633        0.080000
        17         -0.55412510        0.080000
        18         -0.55588005        0.080000
        19         -0.55889437        0.080000
        20         -0.55920895        0.080000
        21         -0.55939147        0.080000
        22         -0.56000066        0.080000
        23         -0.56008165        0.080000
        24         -0.56047910        0.080000
        25         -0.56050896        0.080000
        26         -0.56128801        0.080000
        27         -0.56161229        0.080000
        28         -0.56192084        0.080000
        29         -0.56375413        0.080000
        30         -0.56446663        0.080000
        31         -0.56455613        0.080000
        32         -0.56456516        0.080000
        33         -0.56474623        0.080000
        34         -0.56489758        0.080000
        35         -0.56493909        0.080000
        36         -0.56500028        0.080000
        37         -0.56523389        0.080000
        38         -0.56568809        0.080000
        39         -0.56596081        0.080000
        40         -0.56600396        0.080000
        41         -0.56602152        0.080000
        42         -0.56603056        0.080000
        43         -0.56604862        0.080000
        44         -0.56611504        0.080000
        45         -0.56619316        0.051348
        46         -0.56626541        0.051348
        47         -0.56632912        0.051348
        48         -0.56640588        0.047539
        49         -0.56643346        0.042350
        50         -0.56643443        0.036304
        51         -0.56643594        0.022006
        52         -0.56644887        0.018864
        53         -0.56644983        0.018864
        54         -0.56645629        0.018864
        55         -0.56645646        0.018864
        56         -0.56645654        0.018864
        57         -0.56646069        0.016171
        58         -0.56646079        0.010586
        59         -0.56646105        0.007631
        60         -0.56646179        0.007631
        61         -0.56646221        0.007631
        62         -0.56646263        0.007631
        63         -0.56646281        0.006542
        64         -0.56646381        0.005941
        65         -0.56646382        0.005941
        66         -0.56646413        0.005941
        67         -0.56646415        0.005941
        68         -0.56646422        0.005941
        69         -0.56646478        0.005941
        70         -0.56646491        0.005941
        71         -0.56646551        0.005941
        72         -0.56646561        0.005093
        73         -0.56646567        0.004995
        74         -0.56646574        0.004282
        75         -0.56646584        0.003671
        76         -0.56646603        0.003671
        77         -0.56646608        0.002646
        78         -0.56646611        0.002646
        79         -0.56646623        0.002312
        80         -0.56646625        0.002021
        81         -0.56646630        0.002021
        82         -0.56646633        0.002021
        83         -0.56646636        0.002021
        84         -0.56646638        0.002021
        85         -0.56646640        0.002021
        86         -0.56646647        0.001732
        87         -0.56646653        0.001635
        88         -0.56646655        0.001635
        89         -0.56646659        0.001635
        90         -0.56646661        0.001635
        91         -0.56646661        0.001401
        92         -0.56646663        0.001401
        93         -0.56646663        0.000900
        94         -0.56646663        0.000900
        95         -0.56646663        0.000556
        96         -0.56646664        0.000556
        97         -0.56646664        0.000556
        98         -0.56646664        0.000556
        99         -0.56646664        0.000409
       100         -0.56646665        0.000409
       101         -0.56646665        0.000262
       102         -0.56646665        0.000262
       103         -0.56646665        0.000262
       104         -0.56646665        0.000193
       105         -0.56646665        0.000144
       106         -0.56646665        0.000144
       107         -0.56646665        0.000144
       108         -0.56646665        0.000144
       109         -0.56646665        0.000144
       110         -0.56646665        0.000144
       111         -0.56646665        0.000124
       112         -0.56646665        0.000083
       113         -0.56646665        0.000083
       114         -0.56646665        0.000083
       115         -0.56646665        0.000071
       116         -0.56646665        0.000071
       117         -0.56646665        0.000063
       118         -0.56646665        0.000063
       119         -0.56646665        0.000055
       120         -0.56646665        0.000055
       121         -0.56646665        0.000055
       122         -0.56646665        0.000055
       123         -0.56646665        0.000055
       124         -0.56646665        0.000048
       125         -0.56646665        0.000045
       126         -0.56646665        0.000032
       127         -0.56646665        0.000032
       128         -0.56646665        0.000032
       129         -0.56646665        0.000032
       130         -0.56646665        0.000028
       131         -0.56646665        0.000028
       132         -0.56646665        0.000021
       133         -0.56646665        0.000018
       134         -0.56646665        0.000018
       135         -0.56646665        0.000016
       136         -0.56646665        0.000016
       137         -0.56646665        0.000014
       138         -0.56646665        0.000014
       139         -0.56646665        0.000014
       140         -0.56646665        0.000010
       141         -0.56646665        0.000010
       142         -0.56646665        0.000009
       143         -0.56646665        0.000008
       144         -0.56646665        0.000006
       145         -0.56646665        0.000006
       146         -0.56646665        0.000006
       147         -0.56646665        0.000006
       148         -0.56646665        0.000005
       149         -0.56646665        0.000005
       150         -0.56646665        0.000005
       151         -0.56646665        0.000005
       152         -0.56646665        0.000005
       153         -0.56646665        0.000004
       154         -0.56646665        0.000004
       155         -0.56646665        0.000003
       156         -0.56646665        0.000003
       157         -0.56646665        0.000003
       158         -0.56646665        0.000003
       159         -0.56646665        0.000003
       160         -0.56646665        0.000002
       161         -0.56646665        0.000002
       162         -0.56646665        0.000002
       163         -0.56646665        0.000001
       164         -0.56646665        0.000001
       165         -0.56646665        0.000001
       166         -0.56646665        0.000001
       167         -0.56646665        0.000001

 Reached Convergence

 WFN1                     :
 --------------------------
 Total WFN1 energy  =          -0.5664666514
 1-Electron energy  =          -1.9807171152
 2-Electron energy  =           0.4028131304
 Correlation energy =           0.0000000000
 DFT XC energy      =           0.0000000000
 Entropy energy     =           0.0000000000
 Nuclear energy     =           1.0114373334

 conventional Hartree-Fock:
 --------------------------
 Total SCF energy  =          -0.5664666514
 2-Electron energy =           0.4028131304

                WFN1 Final Natural orbital energies and occupations
                ---------------------------------------------------

              Alpha       Beta            Alpha       Beta  
            --------    --------        --------    --------
       1      0.0000      0.0000          1.0000      0.0000
       2      0.0000      0.0000          1.0000      0.0000
       3      0.0000      0.0000          0.0000      0.0000
       4      0.0000      0.0000          0.0000      0.0000

             WFN1 Final Correlation function energies and occupations
             --------------------------------------------------------

              Alpha       Beta            Alpha       Beta  
            --------    --------        --------    --------
       1      0.0000      0.0000          1.0000      0.0000
       2      0.0000      0.0000          1.0000      0.0000
       3      0.0000      0.0000          0.0000      0.0000
       4      0.0000      0.0000          0.0000      0.0000

                WFN1 Final alpha-alpha 2-matrix occupation numbers
                --------------------------------------------------


 global array: g_momo1[1:4,1:4],  handle: -990 

            1           2           3           4  
       ----------- ----------- ----------- -----------
   1       0.00000     1.00000     0.00000     0.00000
   2       1.00000     0.00000     0.00000     0.00000
   3       0.00000     0.00000     0.00000     0.00000
   4       0.00000     0.00000     0.00000     0.00000

                 WFN1 Final beta-beta 2-matrix occupation numbers
                 ------------------------------------------------


 global array: g_momo2[1:4,1:4],  handle: -989 

            1           2           3           4  
       ----------- ----------- ----------- -----------
   1       0.00000     0.00000     0.00000     0.00000
   2       0.00000     0.00000     0.00000     0.00000
   3       0.00000     0.00000     0.00000     0.00000
   4       0.00000     0.00000     0.00000     0.00000

                  WFN1 Final alpha Correlation Function Analysis
                  ----------------------------------------------


 global array: Ca[1:4,1:4],  handle: -977 

                     1                       2                       3                       4  
       ----------------------- ----------------------- ----------------------- -----------------------
   1      -0.99956,    0.02038     0.02111,   -0.00489     0.00000,   -0.00000     0.00000,   -0.00000
   2      -0.00080,    0.02165     0.16982,    0.98524     0.00000,    0.00000     0.00000,    0.00000
   3      -0.00000,   -0.00000     0.00000,    0.00000    -0.99380,    0.09672     0.02287,   -0.04976
   4       0.00000,   -0.00000    -0.00000,   -0.00000     0.05187,    0.01754     0.75281,   -0.65595

                   WFN1 Final beta Correlation Function Analysis
                   ---------------------------------------------


 global array: Cb[1:4,1:4],  handle: -976 

                     1                       2                       3                       4  
       ----------------------- ----------------------- ----------------------- -----------------------
   1      -0.98956,    0.01501    -0.01091,   -0.09099     0.00153,   -0.04937    -0.04903,   -0.08545
   2      -0.07828,    0.01697     0.15117,    0.96550     0.02399,   -0.15022     0.07888,   -0.09584
   3      -0.01663,   -0.05633    -0.12795,    0.05851    -0.97949,    0.11488     0.06219,    0.01710
   4       0.03427,    0.09749    -0.00574,   -0.12938     0.01830,   -0.03857     0.74425,   -0.64562

                     WFN1 Final Alpha Natural Orbital Analysis
                     -----------------------------------------

 Vector    1  Occ=1.000000D+00  E= 0.000000D+00
              MO Center=  0.0D+00,  0.0D+00,  6.5D-02, r^2= 4.5D-01
   Bfn.  Coefficient  Atom+Function         Bfn.  Coefficient  Atom+Function  
  ----- ------------  ---------------      ----- ------------  ---------------
     3      0.452266  2 H  s                  1      0.413262  1 H  s          
     4      0.329386  2 H  s                  2     -0.052376  1 H  s          

 Vector    2  Occ=1.000000D+00  E= 0.000000D+00
              MO Center=  0.0D+00,  0.0D+00, -6.5D-02, r^2= 1.9D+00
   Bfn.  Coefficient  Atom+Function         Bfn.  Coefficient  Atom+Function  
  ----- ------------  ---------------      ----- ------------  ---------------
     2     -2.291164  1 H  s                  4      2.267969  2 H  s          
     1     -0.269137  1 H  s                  3      0.196661  2 H  s          

 Vector    3  Occ=5.136481D-14  E= 0.000000D+00
              MO Center=  0.0D+00,  0.0D+00, -4.6D-02, r^2= 1.7D+00
   Bfn.  Coefficient  Atom+Function         Bfn.  Coefficient  Atom+Function  
  ----- ------------  ---------------      ----- ------------  ---------------
     2     -0.789763  1 H  s                  1      0.694920  1 H  s          
     4     -0.592556  2 H  s                  3      0.549662  2 H  s          

 Vector    4  Occ=9.031024D-15  E= 0.000000D+00
              MO Center=  0.0D+00,  0.0D+00,  4.6D-02, r^2= 1.0D+00
   Bfn.  Coefficient  Atom+Function         Bfn.  Coefficient  Atom+Function  
  ----- ------------  ---------------      ----- ------------  ---------------
     4      1.909359  2 H  s                  2     -1.836587  1 H  s          
     3     -1.412350  2 H  s                  1      1.346829  1 H  s          


                     WFN1 Final Beta Natural Orbital Analysis
                     ----------------------------------------

 Vector    1  Occ=0.000000D+00  E= 0.000000D+00
              MO Center=  0.0D+00,  0.0D+00, -6.6D-02, r^2= 5.1D-01
   Bfn.  Coefficient  Atom+Function         Bfn.  Coefficient  Atom+Function  
  ----- ------------  ---------------      ----- ------------  ---------------
     1      0.420698  1 H  s                  3      0.383127  2 H  s          
     2      0.350882  1 H  s          

 Vector    2  Occ=0.000000D+00  E= 0.000000D+00
              MO Center=  0.0D+00,  0.0D+00,  8.1D-02, r^2= 2.2D+00
   Bfn.  Coefficient  Atom+Function         Bfn.  Coefficient  Atom+Function  
  ----- ------------  ---------------      ----- ------------  ---------------
     4      2.563155  2 H  s                  2     -2.515572  1 H  s          
     3      0.041184  2 H  s          

 Vector    3  Occ=0.000000D+00  E= 0.000000D+00
              MO Center=  0.0D+00,  0.0D+00, -2.9D-02, r^2= 1.7D+00
   Bfn.  Coefficient  Atom+Function         Bfn.  Coefficient  Atom+Function  
  ----- ------------  ---------------      ----- ------------  ---------------
     2     -0.741087  1 H  s                  1      0.660721  1 H  s          
     3      0.627319  2 H  s                  4     -0.627210  2 H  s          

 Vector    4  Occ=0.000000D+00  E= 0.000000D+00
              MO Center=  0.0D+00,  0.0D+00,  1.3D-02, r^2= 7.4D-01
   Bfn.  Coefficient  Atom+Function         Bfn.  Coefficient  Atom+Function  
  ----- ------------  ---------------      ----- ------------  ---------------
     4      1.511872  2 H  s                  2     -1.499507  1 H  s          
     3     -1.413531  2 H  s                  1      1.387998  1 H  s          


 Task  times  cpu:       15.9s     wall:       23.3s
 Summary of allocated global arrays
-----------------------------------
  No active global arrays



                         GA Statistics for process    0
                         ------------------------------

       create   destroy   get      put      acc     scatter   gather  read&inc
calls:   44       44     8.67e+06 2.99e+04 2.37e+04    0        0       11     
number of processes/call 1.00e+00 1.00e+00 1.00e+00 0.00e+00 0.00e+00
bytes total:             1.11e+09 5.30e+06 3.79e+06 0.00e+00 0.00e+00 8.80e+01
bytes remote:            0.00e+00 0.00e+00 0.00e+00 0.00e+00 0.00e+00 0.00e+00
Max memory consumed for GA by this process: 10624 bytes
MA_summarize_allocated_blocks: starting scan ...
MA_summarize_allocated_blocks: scan completed: 0 heap blocks, 0 stack blocks
MA usage statistics:

	allocation statistics:
					      heap	     stack
					      ----	     -----
	current number of blocks	         0	         0
	maximum number of blocks	        19	        17
	current total bytes		         0	         0
	maximum total bytes		   3204360	  22508648
	maximum total K-bytes		      3205	     22509
	maximum total M-bytes		         4	        23


                                NWChem Input Module
                                -------------------





                                     CITATION
                                     --------
                Please cite the following reference when publishing
                           results obtained with NWChem:

                 M. Valiev, E.J. Bylaska, N. Govind, K. Kowalski,
              T.P. Straatsma, H.J.J. van Dam, D. Wang, J. Nieplocha,
                        E. Apra, T.L. Windus, W.A. de Jong
                 "NWChem: a comprehensive and scalable open-source
                  solution for large scale molecular simulations"
                      Comput. Phys. Commun. 181, 1477 (2010)
                           doi:10.1016/j.cpc.2010.04.018

                                      AUTHORS
                                      -------
          E. Apra, E. J. Bylaska, W. A. de Jong, N. Govind, K. Kowalski,
       T. P. Straatsma, M. Valiev, H. J. J. van Dam, D. Wang, T. L. Windus,
        J. Hammond, J. Autschbach, K. Bhaskaran-Nair, J. Brabec, K. Lopata,
    S. A. Fischer, S. Krishnamoorthy, M. Jacquelin, W. Ma, M. Klemm, O. Villa,
      Y. Chen, V. Anisimov, F. Aquino, S. Hirata, M. T. Hackler, V. Konjkov,
      T. Risthaus, M. Malagoli, A. Marenich, A. Otero-de-la-Roza, J. Mullin,
        P. Nichols, R. Peverati, J. Pittner, Y. Zhao, P.-D. Fan, A. Fonari,
       M. Williamson, R. J. Harrison, J. R. Rehr, M. Dupuis, D. Silverstein,
    D. M. A. Smith, J. Nieplocha, V. Tipparaju, M. Krishnan, B. E. Van Kuiken,
        A. Vazquez-Mayagoitia, L. Jensen, M. Swart, Q. Wu, T. Van Voorhis,
     A. A. Auer, M. Nooijen, L. D. Crosby, E. Brown, G. Cisneros, G. I. Fann,
   H. Fruchtl, J. Garza, K. Hirao, R. A. Kendall, J. A. Nichols, K. Tsemekhman,
    K. Wolinski, J. Anchell, D. E. Bernholdt, P. Borowski, T. Clark, D. Clerc,
   H. Dachsel, M. J. O. Deegan, K. Dyall, D. Elwood, E. Glendening, M. Gutowski,
   A. C. Hess, J. Jaffe, B. G. Johnson, J. Ju, R. Kobayashi, R. Kutteh, Z. Lin,
   R. Littlefield, X. Long, B. Meng, T. Nakajima, S. Niu, L. Pollack, M. Rosing,
   K. Glaesemann, G. Sandrone, M. Stave, H. Taylor, G. Thomas, J. H. van Lenthe,
                               A. T. Wong, Z. Zhang.

 Total times  cpu:       15.9s     wall:       23.3s
