 argument  1 = input-wf.nw



============================== echo of input deck ==============================
echo
start wfn1_dat
geometry units au noautoz
  H 0 0 -4.89434600000000000000
  H 0 0  4.89434600000000000000
  symmetry cs
end
basis
  H library 6-31g
end
set wfn1:input_vectors "atomic"
set wfn1:solver "monte-carlo"
set wfn1:print_error F
set wfn1:t_initial 0.1
set wfn1:nopen 2
#set wfn1:corr_expr "wfn1_mx"
set wfn1:corr_expr "wfn1c"
set wfn1:t_bath 0.0
set wfn1:maxit  20000
task wfn1 energy
================================================================================


                                         
                                         


              Northwest Computational Chemistry Package (NWChem) 6.8
              ------------------------------------------------------


                    Environmental Molecular Sciences Laboratory
                       Pacific Northwest National Laboratory
                                Richland, WA 99352

                              Copyright (c) 1994-2015
                       Pacific Northwest National Laboratory
                            Battelle Memorial Institute

             NWChem is an open-source computational chemistry package
                        distributed under the terms of the
                      Educational Community License (ECL) 2.0
             A copy of the license is included with this distribution
                              in the LICENSE.TXT file

                                  ACKNOWLEDGMENT
                                  --------------

            This software and its documentation were developed at the
            EMSL at Pacific Northwest National Laboratory, a multiprogram
            national laboratory, operated for the U.S. Department of Energy
            by Battelle under Contract Number DE-AC05-76RL01830. Support
            for this work was provided by the Department of Energy Office
            of Biological and Environmental Research, Office of Basic
            Energy Sciences, and the Office of Advanced Scientific Computing.


           Job information
           ---------------

    hostname        = erato
    program         = ../../../bin/LINUX64/nwchem
    date            = Sat Mar  6 01:47:34 2021

    compiled        = Sat_Mar_06_01:07:04_2021
    source          = /home/hvandam/nwchem-1-wfn1
    nwchem branch   = Development
    nwchem revision = nwchem_on_git-124-gad72d19fff205e319ffbbf2bca37a04ded6ad57b
    ga revision     = nwchem_on_git-124-gad72d19
    use scalapack   = F
    input           = input-wf.nw
    prefix          = wfn1_dat.
    data base       = ./wfn1_dat.db
    status          = startup
    nproc           =        1
    time left       =     -1s



           Memory information
           ------------------

    heap     =   13107194 doubles =    100.0 Mbytes
    stack    =   13107199 doubles =    100.0 Mbytes
    global   =   26214400 doubles =    200.0 Mbytes (distinct from heap & stack)
    total    =   52428793 doubles =    400.0 Mbytes
    verify   = yes
    hardfail = no 


           Directory information
           ---------------------

  0 permanent = .
  0 scratch   = .




                                NWChem Input Module
                                -------------------


 Turning off AUTOSYM since
 SYMMETRY directive was detected!



                             Geometry "geometry" -> ""
                             -------------------------

 Output coordinates in a.u. (scale by  1.000000000 to convert to a.u.)

  No.       Tag          Charge          X              Y              Z
 ---- ---------------- ---------- -------------- -------------- --------------
    1 H                    1.0000     0.00000000     0.00000000    -4.89434600
    2 H                    1.0000     0.00000000     0.00000000     4.89434600

      Atomic Mass 
      ----------- 

      H                  1.007825


 Effective nuclear repulsion energy (a.u.)       0.1021586950

            Nuclear Dipole moment (a.u.) 
            ----------------------------
        X                 Y               Z
 ---------------- ---------------- ----------------
     0.0000000000     0.0000000000     0.0000000000

      Symmetry information
      --------------------

 Group name             Cs        
 Group number              2
 Group order               2
 No. of unique centers     1

      Symmetry unique atoms

     1


            XYZ format geometry
            -------------------
     2
 geometry
 H                     0.00000000     0.00000000    -2.58997655
 H                     0.00000000     0.00000000     2.58997655

                      Basis "ao basis" -> "" (cartesian)
                      -----
  H (Hydrogen)
  ------------
            Exponent  Coefficients 
       -------------- ---------------------------------------------------------
  1 S  1.87311370E+01  0.033495
  1 S  2.82539370E+00  0.234727
  1 S  6.40121700E-01  0.813757

  2 S  1.61277800E-01  1.000000



 Summary of "ao basis" -> "" (cartesian)
 ------------------------------------------------------------------------------
       Tag                 Description            Shells   Functions and Types
 ---------------- ------------------------------  ------  ---------------------
 H                           6-31g                   2        2   2s



                                NWChem WFN1 Module
                                ------------------



          No. of electrons :     2
           Alpha electrons :     2
            Beta electrons :     0
          Charge           :     0
          Spin multiplicity:     3

 HvD: wfn1_inpdft
 HvD: nquad_task =                     1
 HvD: iangquad   =                     0
 HvD: gridtype   = user      
 HvD: leb        =  T
 HvD: radgrid    = murakn    
 HvD: trunc_neigh=  T
 HvD: lssw       =  T
 HvD: whichssw   = erf1    
 HvD: mxnrad     =                     0
 HvD: mxnang     =                     0
 HVD: wfn1: movecs_in  = atomic                                                                                                                                                                                                                                                          
 HVD: wfn1: movecs_out = ./wfn1_dat.movecs                                                                                                                                                                                                                                               

      Superposition of Atomic Density Guess
      -------------------------------------

 Sum of atomic energies:          -0.99646508

      Non-variational initial energy
      ------------------------------

 Total energy =      -0.682110
 1-e energy   =      -1.200783
 2-e energy   =       0.416515
 HOMO         =      -0.191438
 LUMO         =      -0.190933

 iteration              energy           error
 ---------              ------           -----
         0         -0.98469742        0.080000
         1         -0.98510991        0.080000
         2         -0.98698715        0.080000
         3         -0.98728912        0.080000
         4         -0.98759966        0.080000
         5         -0.98961749        0.080000
         6         -0.99072515        0.080000
         7         -0.99086938        0.080000
         8         -0.99090367        0.080000
         9         -0.99212850        0.080000
        10         -0.99312840        0.080000
        11         -0.99358045        0.080000
        12         -0.99369272        0.080000
        13         -0.99396873        0.080000
        14         -0.99421128        0.080000
        15         -0.99448402        0.080000
        16         -0.99491678        0.080000
        17         -0.99534640        0.080000
        18         -0.99547886        0.080000
        19         -0.99549205        0.080000
        20         -0.99558234        0.080000
        21         -0.99560485        0.080000
        22         -0.99578388        0.080000
        23         -0.99602245        0.080000
        24         -0.99603971        0.080000
        25         -0.99611334        0.080000
        26         -0.99613872        0.080000
        27         -0.99622535        0.080000
        28         -0.99631339        0.075485
        29         -0.99637959        0.068553
        30         -0.99640434        0.049416
        31         -0.99641153        0.035621
        32         -0.99643524        0.030536
        33         -0.99644857        0.030536
        34         -0.99644859        0.026176
        35         -0.99645274        0.026176
        36         -0.99645652        0.013602
        37         -0.99645845        0.011886
        38         -0.99646059        0.010189
        39         -0.99646137        0.010189
        40         -0.99646236        0.008735
        41         -0.99646253        0.008735
        42         -0.99646255        0.008735
        43         -0.99646388        0.008735
        44         -0.99646389        0.007633
        45         -0.99646439        0.005829
        46         -0.99646513        0.005829
        47         -0.99646535        0.004202
        48         -0.99646538        0.003672
        49         -0.99646557        0.002647
        50         -0.99646558        0.001908
        51         -0.99646565        0.001908
        52         -0.99646568        0.001636
        53         -0.99646571        0.001202
        54         -0.99646574        0.001202
        55         -0.99646576        0.001202
        56         -0.99646579        0.001202
        57         -0.99646580        0.001202
        58         -0.99646580        0.001202
        59         -0.99646581        0.001030
        60         -0.99646582        0.000972
        61         -0.99646582        0.000834
        62         -0.99646585        0.000834
        63         -0.99646585        0.000601
        64         -0.99646585        0.000442
        65         -0.99646585        0.000379
        66         -0.99646585        0.000324
        67         -0.99646586        0.000324
        68         -0.99646586        0.000197
        69         -0.99646586        0.000145
        70         -0.99646586        0.000145
        71         -0.99646586        0.000145
        72         -0.99646586        0.000124
        73         -0.99646586        0.000124
        74         -0.99646586        0.000124
        75         -0.99646586        0.000110
        76         -0.99646586        0.000070
        77         -0.99646586        0.000060
        78         -0.99646586        0.000060
        79         -0.99646586        0.000043
        80         -0.99646586        0.000038
        81         -0.99646586        0.000032
        82         -0.99646586        0.000032
        83         -0.99646586        0.000032
        84         -0.99646586        0.000032
        85         -0.99646586        0.000020
        86         -0.99646586        0.000018
        87         -0.99646586        0.000015
        88         -0.99646586        0.000009
        89         -0.99646586        0.000009
        90         -0.99646586        0.000009
        91         -0.99646586        0.000009
        92         -0.99646586        0.000008
        93         -0.99646586        0.000008
        94         -0.99646586        0.000008
        95         -0.99646586        0.000007
        96         -0.99646586        0.000007
        97         -0.99646586        0.000005
        98         -0.99646586        0.000005
        99         -0.99646586        0.000004
       100         -0.99646586        0.000003
       101         -0.99646586        0.000003
       102         -0.99646586        0.000002
       103         -0.99646586        0.000002
       104         -0.99646586        0.000002
       105         -0.99646586        0.000002
       106         -0.99646586        0.000002
       107         -0.99646586        0.000002
       108         -0.99646586        0.000001
       109         -0.99646586        0.000001
       110         -0.99646586        0.000001
       111         -0.99646586        0.000001
       112         -0.99646586        0.000001

 Reached Convergence

 WFN1                     :
 --------------------------
 Total WFN1 energy  =          -0.9964658576
 1-Electron energy  =          -1.2007832811
 2-Electron energy  =           0.1021587285
 Correlation energy =           0.0000000000
 DFT XC energy      =           0.0000000000
 Entropy energy     =           0.0000000000
 Nuclear energy     =           0.1021586950

 conventional Hartree-Fock:
 --------------------------
 Total SCF energy  =          -0.9964658576
 2-Electron energy =           0.1021587285

                WFN1 Final Natural orbital energies and occupations
                ---------------------------------------------------

              Alpha       Beta            Alpha       Beta  
            --------    --------        --------    --------
       1      0.0000      0.0000          1.0000      0.0000
       2      0.0000      0.0000          1.0000      0.0000
       3      0.0000      0.0000          0.0000      0.0000
       4      0.0000      0.0000          0.0000      0.0000

             WFN1 Final Correlation function energies and occupations
             --------------------------------------------------------

              Alpha       Beta            Alpha       Beta  
            --------    --------        --------    --------
       1      0.0000      0.0000          1.0000      0.0000
       2      0.0000      0.0000          1.0000      0.0000
       3      0.0000      0.0000          0.0000      0.0000
       4      0.0000      0.0000          0.0000      0.0000

                WFN1 Final alpha-alpha 2-matrix occupation numbers
                --------------------------------------------------


 global array: g_momo1[1:4,1:4],  handle: -990 

            1           2           3           4  
       ----------- ----------- ----------- -----------
   1      -0.00000     1.00000     0.00000     0.00000
   2       1.00000     0.00000     0.00000     0.00000
   3       0.00000     0.00000    -0.00000     0.00000
   4       0.00000     0.00000     0.00000     0.00000

                 WFN1 Final beta-beta 2-matrix occupation numbers
                 ------------------------------------------------


 global array: g_momo2[1:4,1:4],  handle: -989 

            1           2           3           4  
       ----------- ----------- ----------- -----------
   1       0.00000     0.00000     0.00000     0.00000
   2       0.00000     0.00000     0.00000     0.00000
   3       0.00000     0.00000     0.00000     0.00000
   4       0.00000     0.00000     0.00000     0.00000

                  WFN1 Final alpha Correlation Function Analysis
                  ----------------------------------------------


 global array: Ca[1:4,1:4],  handle: -981 

                     1                       2                       3                       4  
       ----------------------- ----------------------- ----------------------- -----------------------
   1      -0.42006,   -0.48520    -0.49735,   -0.58376     0.00000,   -0.00000    -0.00000,   -0.00000
   2       0.52247,   -0.56138    -0.44094,    0.46631     0.00000,    0.00000    -0.00000,    0.00000
   3      -0.00000,    0.00000    -0.00000,   -0.00000     0.66332,   -0.22280     0.67627,   -0.23026
   4      -0.00000,   -0.00000     0.00000,    0.00000    -0.27331,    0.66005     0.26503,   -0.64761

                   WFN1 Final beta Correlation Function Analysis
                   ---------------------------------------------


 global array: Cb[1:4,1:4],  handle: -980 

                     1                       2                       3                       4  
       ----------------------- ----------------------- ----------------------- -----------------------
   1      -0.42757,   -0.55050    -0.43878,   -0.56472     0.05167,    0.00143    -0.00341,    0.00281
   2       0.46312,   -0.54371    -0.45423,    0.53065    -0.01871,    0.03793     0.01234,    0.00667
   3       0.04221,    0.01633    -0.00016,    0.00579     0.64957,   -0.22425     0.68431,   -0.23960
   4      -0.03457,    0.02805    -0.02031,   -0.01418    -0.28118,    0.66652     0.26429,   -0.63580

                     WFN1 Final Alpha Natural Orbital Analysis
                     -----------------------------------------

 Vector    1  Occ=1.000000D+00  E= 0.000000D+00
              MO Center=  0.0D+00,  0.0D+00,  4.8D-02, r^2= 7.5D+00
   Bfn.  Coefficient  Atom+Function         Bfn.  Coefficient  Atom+Function  
  ----- ------------  ---------------      ----- ------------  ---------------
     4     -0.474978  2 H  s                  2     -0.466271  1 H  s          
     3     -0.304834  2 H  s                  1     -0.299236  1 H  s          

 Vector    2  Occ=1.000000D+00  E= 0.000000D+00
              MO Center=  0.0D+00,  0.0D+00, -4.8D-02, r^2= 7.5D+00
   Bfn.  Coefficient  Atom+Function         Bfn.  Coefficient  Atom+Function  
  ----- ------------  ---------------      ----- ------------  ---------------
     2      0.474778  1 H  s                  4     -0.466067  2 H  s          
     1      0.305212  1 H  s                  3     -0.299622  2 H  s          

 Vector    3  Occ=7.669214D-15  E= 0.000000D+00
              MO Center=  0.0D+00,  0.0D+00,  1.2D-01, r^2= 7.9D+00
   Bfn.  Coefficient  Atom+Function         Bfn.  Coefficient  Atom+Function  
  ----- ------------  ---------------      ----- ------------  ---------------
     3     -0.909151  2 H  s                  1     -0.868993  1 H  s          
     4      0.830676  2 H  s                  2      0.793950  1 H  s          

 Vector    4  Occ=1.126838D-14  E= 0.000000D+00
              MO Center=  0.0D+00,  0.0D+00, -1.2D-01, r^2= 7.9D+00
   Bfn.  Coefficient  Atom+Function         Bfn.  Coefficient  Atom+Function  
  ----- ------------  ---------------      ----- ------------  ---------------
     1     -0.909345  1 H  s                  3      0.869196  2 H  s          
     2      0.831609  1 H  s                  4     -0.794927  2 H  s          


                     WFN1 Final Beta Natural Orbital Analysis
                     ----------------------------------------

 Vector    1  Occ=0.000000D+00  E= 0.000000D+00
              MO Center=  0.0D+00,  0.0D+00, -1.8D-03, r^2= 7.7D+00
   Bfn.  Coefficient  Atom+Function         Bfn.  Coefficient  Atom+Function  
  ----- ------------  ---------------      ----- ------------  ---------------
     4     -0.569576  2 H  s                  2     -0.533950  1 H  s          
     1     -0.230444  1 H  s                  3     -0.186919  2 H  s          

 Vector    2  Occ=0.000000D+00  E= 0.000000D+00
              MO Center=  0.0D+00,  0.0D+00,  1.3D-03, r^2= 7.6D+00
   Bfn.  Coefficient  Atom+Function         Bfn.  Coefficient  Atom+Function  
  ----- ------------  ---------------      ----- ------------  ---------------
     4     -0.562478  2 H  s                  2      0.517558  1 H  s          
     1      0.249285  1 H  s                  3     -0.196387  2 H  s          

 Vector    3  Occ=0.000000D+00  E= 0.000000D+00
              MO Center=  0.0D+00,  0.0D+00,  4.6D-01, r^2= 7.5D+00
   Bfn.  Coefficient  Atom+Function         Bfn.  Coefficient  Atom+Function  
  ----- ------------  ---------------      ----- ------------  ---------------
     3     -0.999548  2 H  s                  1     -0.824753  1 H  s          
     4      0.807740  2 H  s                  2      0.702609  1 H  s          

 Vector    4  Occ=0.000000D+00  E= 0.000000D+00
              MO Center=  0.0D+00,  0.0D+00, -4.6D-01, r^2= 7.6D+00
   Bfn.  Coefficient  Atom+Function         Bfn.  Coefficient  Atom+Function  
  ----- ------------  ---------------      ----- ------------  ---------------
     1     -0.984525  1 H  s                  2      0.847424  1 H  s          
     3      0.831956  2 H  s                  4     -0.686667  2 H  s          


 Task  times  cpu:       11.7s     wall:       17.7s
 Summary of allocated global arrays
-----------------------------------
  No active global arrays



                         GA Statistics for process    0
                         ------------------------------

       create   destroy   get      put      acc     scatter   gather  read&inc
calls:   44       44     7.07e+06 2.45e+04 1.94e+04    0        0       10     
number of processes/call 1.00e+00 1.00e+00 1.00e+00 0.00e+00 0.00e+00
bytes total:             9.09e+08 4.33e+06 3.09e+06 0.00e+00 0.00e+00 8.00e+01
bytes remote:            0.00e+00 0.00e+00 0.00e+00 0.00e+00 0.00e+00 0.00e+00
Max memory consumed for GA by this process: 10624 bytes
MA_summarize_allocated_blocks: starting scan ...
MA_summarize_allocated_blocks: scan completed: 0 heap blocks, 0 stack blocks
MA usage statistics:

	allocation statistics:
					      heap	     stack
					      ----	     -----
	current number of blocks	         0	         0
	maximum number of blocks	        19	        17
	current total bytes		         0	         0
	maximum total bytes		   3204376	  22508632
	maximum total K-bytes		      3205	     22509
	maximum total M-bytes		         4	        23


                                NWChem Input Module
                                -------------------





                                     CITATION
                                     --------
                Please cite the following reference when publishing
                           results obtained with NWChem:

                 M. Valiev, E.J. Bylaska, N. Govind, K. Kowalski,
              T.P. Straatsma, H.J.J. van Dam, D. Wang, J. Nieplocha,
                        E. Apra, T.L. Windus, W.A. de Jong
                 "NWChem: a comprehensive and scalable open-source
                  solution for large scale molecular simulations"
                      Comput. Phys. Commun. 181, 1477 (2010)
                           doi:10.1016/j.cpc.2010.04.018

                                      AUTHORS
                                      -------
          E. Apra, E. J. Bylaska, W. A. de Jong, N. Govind, K. Kowalski,
       T. P. Straatsma, M. Valiev, H. J. J. van Dam, D. Wang, T. L. Windus,
        J. Hammond, J. Autschbach, K. Bhaskaran-Nair, J. Brabec, K. Lopata,
    S. A. Fischer, S. Krishnamoorthy, M. Jacquelin, W. Ma, M. Klemm, O. Villa,
      Y. Chen, V. Anisimov, F. Aquino, S. Hirata, M. T. Hackler, V. Konjkov,
      T. Risthaus, M. Malagoli, A. Marenich, A. Otero-de-la-Roza, J. Mullin,
        P. Nichols, R. Peverati, J. Pittner, Y. Zhao, P.-D. Fan, A. Fonari,
       M. Williamson, R. J. Harrison, J. R. Rehr, M. Dupuis, D. Silverstein,
    D. M. A. Smith, J. Nieplocha, V. Tipparaju, M. Krishnan, B. E. Van Kuiken,
        A. Vazquez-Mayagoitia, L. Jensen, M. Swart, Q. Wu, T. Van Voorhis,
     A. A. Auer, M. Nooijen, L. D. Crosby, E. Brown, G. Cisneros, G. I. Fann,
   H. Fruchtl, J. Garza, K. Hirao, R. A. Kendall, J. A. Nichols, K. Tsemekhman,
    K. Wolinski, J. Anchell, D. E. Bernholdt, P. Borowski, T. Clark, D. Clerc,
   H. Dachsel, M. J. O. Deegan, K. Dyall, D. Elwood, E. Glendening, M. Gutowski,
   A. C. Hess, J. Jaffe, B. G. Johnson, J. Ju, R. Kobayashi, R. Kutteh, Z. Lin,
   R. Littlefield, X. Long, B. Meng, T. Nakajima, S. Niu, L. Pollack, M. Rosing,
   K. Glaesemann, G. Sandrone, M. Stave, H. Taylor, G. Thomas, J. H. van Lenthe,
                               A. T. Wong, Z. Zhang.

 Total times  cpu:       11.7s     wall:       17.7s
