 argument  1 = input-wf.nw



============================== echo of input deck ==============================
echo
start wfn1_dat
geometry units au noautoz
  H 0 0 -3.24434600000000000000
  H 0 0  3.24434600000000000000
  symmetry cs
end
basis
  H library 6-31g
end
set wfn1:input_vectors "atomic"
set wfn1:solver "monte-carlo"
set wfn1:print_error F
set wfn1:t_initial 0.1
set wfn1:nopen 2
#set wfn1:corr_expr "wfn1_mx"
set wfn1:corr_expr "wfn1c"
set wfn1:t_bath 0.0
set wfn1:maxit  20000
task wfn1 energy
================================================================================


                                         
                                         


              Northwest Computational Chemistry Package (NWChem) 6.8
              ------------------------------------------------------


                    Environmental Molecular Sciences Laboratory
                       Pacific Northwest National Laboratory
                                Richland, WA 99352

                              Copyright (c) 1994-2015
                       Pacific Northwest National Laboratory
                            Battelle Memorial Institute

             NWChem is an open-source computational chemistry package
                        distributed under the terms of the
                      Educational Community License (ECL) 2.0
             A copy of the license is included with this distribution
                              in the LICENSE.TXT file

                                  ACKNOWLEDGMENT
                                  --------------

            This software and its documentation were developed at the
            EMSL at Pacific Northwest National Laboratory, a multiprogram
            national laboratory, operated for the U.S. Department of Energy
            by Battelle under Contract Number DE-AC05-76RL01830. Support
            for this work was provided by the Department of Energy Office
            of Biological and Environmental Research, Office of Basic
            Energy Sciences, and the Office of Advanced Scientific Computing.


           Job information
           ---------------

    hostname        = erato
    program         = ../../../bin/LINUX64/nwchem
    date            = Sat Mar  6 01:36:18 2021

    compiled        = Sat_Mar_06_01:07:04_2021
    source          = /home/hvandam/nwchem-1-wfn1
    nwchem branch   = Development
    nwchem revision = nwchem_on_git-124-gad72d19fff205e319ffbbf2bca37a04ded6ad57b
    ga revision     = nwchem_on_git-124-gad72d19
    use scalapack   = F
    input           = input-wf.nw
    prefix          = wfn1_dat.
    data base       = ./wfn1_dat.db
    status          = startup
    nproc           =        1
    time left       =     -1s



           Memory information
           ------------------

    heap     =   13107200 doubles =    100.0 Mbytes
    stack    =   13107197 doubles =    100.0 Mbytes
    global   =   26214400 doubles =    200.0 Mbytes (distinct from heap & stack)
    total    =   52428797 doubles =    400.0 Mbytes
    verify   = yes
    hardfail = no 


           Directory information
           ---------------------

  0 permanent = .
  0 scratch   = .




                                NWChem Input Module
                                -------------------


 Turning off AUTOSYM since
 SYMMETRY directive was detected!



                             Geometry "geometry" -> ""
                             -------------------------

 Output coordinates in a.u. (scale by  1.000000000 to convert to a.u.)

  No.       Tag          Charge          X              Y              Z
 ---- ---------------- ---------- -------------- -------------- --------------
    1 H                    1.0000     0.00000000     0.00000000    -3.24434600
    2 H                    1.0000     0.00000000     0.00000000     3.24434600

      Atomic Mass 
      ----------- 

      H                  1.007825


 Effective nuclear repulsion energy (a.u.)       0.1541142652

            Nuclear Dipole moment (a.u.) 
            ----------------------------
        X                 Y               Z
 ---------------- ---------------- ----------------
     0.0000000000     0.0000000000     0.0000000000

      Symmetry information
      --------------------

 Group name             Cs        
 Group number              2
 Group order               2
 No. of unique centers     1

      Symmetry unique atoms

     1


            XYZ format geometry
            -------------------
     2
 geometry
 H                     0.00000000     0.00000000    -1.71683409
 H                     0.00000000     0.00000000     1.71683409

                      Basis "ao basis" -> "" (cartesian)
                      -----
  H (Hydrogen)
  ------------
            Exponent  Coefficients 
       -------------- ---------------------------------------------------------
  1 S  1.87311370E+01  0.033495
  1 S  2.82539370E+00  0.234727
  1 S  6.40121700E-01  0.813757

  2 S  1.61277800E-01  1.000000



 Summary of "ao basis" -> "" (cartesian)
 ------------------------------------------------------------------------------
       Tag                 Description            Shells   Functions and Types
 ---------------- ------------------------------  ------  ---------------------
 H                           6-31g                   2        2   2s



                                NWChem WFN1 Module
                                ------------------



          No. of electrons :     2
           Alpha electrons :     2
            Beta electrons :     0
          Charge           :     0
          Spin multiplicity:     3

 HvD: wfn1_inpdft
 HvD: nquad_task =                     1
 HvD: iangquad   =                     0
 HvD: gridtype   = user      
 HvD: leb        =  T
 HvD: radgrid    = murakn    
 HvD: trunc_neigh=  T
 HvD: lssw       =  T
 HvD: whichssw   = erf1    
 HvD: mxnrad     =                     0
 HvD: mxnang     =                     0
 HVD: wfn1: movecs_in  = atomic                                                                                                                                                                                                                                                          
 HVD: wfn1: movecs_out = ./wfn1_dat.movecs                                                                                                                                                                                                                                               

      Superposition of Atomic Density Guess
      -------------------------------------

 Sum of atomic energies:          -0.99646508

      Non-variational initial energy
      ------------------------------

 Total energy =      -0.682177
 1-e energy   =      -1.304694
 2-e energy   =       0.468403
 HOMO         =      -0.200551
 LUMO         =      -0.181653

 iteration              energy           error
 ---------              ------           -----
         0         -0.98461253        0.080000
         1         -0.98531675        0.080000
         2         -0.98537492        0.080000
         3         -0.98691977        0.080000
         4         -0.98774913        0.080000
         5         -0.98817893        0.080000
         6         -0.98869409        0.080000
         7         -0.98903426        0.080000
         8         -0.99028031        0.080000
         9         -0.99049209        0.080000
        10         -0.99213900        0.080000
        11         -0.99293890        0.080000
        12         -0.99307536        0.080000
        13         -0.99378898        0.080000
        14         -0.99403317        0.080000
        15         -0.99430906        0.080000
        16         -0.99433397        0.080000
        17         -0.99455046        0.080000
        18         -0.99521831        0.080000
        19         -0.99529599        0.080000
        20         -0.99539052        0.080000
        21         -0.99545171        0.080000
        22         -0.99560173        0.080000
        23         -0.99566438        0.080000
        24         -0.99577053        0.080000
        25         -0.99584076        0.080000
        26         -0.99588297        0.080000
        27         -0.99591722        0.080000
        28         -0.99604871        0.080000
        29         -0.99620075        0.080000
        30         -0.99622442        0.080000
        31         -0.99624434        0.057646
        32         -0.99625112        0.057646
        33         -0.99631368        0.043184
        34         -0.99631432        0.037738
        35         -0.99633383        0.037738
        36         -0.99633777        0.032350
        37         -0.99634387        0.032350
        38         -0.99634775        0.019990
        39         -0.99634789        0.019990
        40         -0.99634846        0.019990
        41         -0.99634957        0.019990
        42         -0.99634977        0.019990
        43         -0.99635136        0.014690
        44         -0.99635466        0.013600
        45         -0.99635548        0.013600
        46         -0.99635556        0.013600
        47         -0.99635748        0.013600
        48         -0.99636036        0.011658
        49         -0.99636043        0.011658
        50         -0.99636363        0.011658
        51         -0.99636549        0.010588
        52         -0.99636550        0.005608
        53         -0.99636551        0.005608
        54         -0.99636583        0.004808
        55         -0.99636615        0.004808
        56         -0.99636645        0.004808
        57         -0.99636651        0.004808
        58         -0.99636710        0.004808
        59         -0.99636715        0.004201
        60         -0.99636715        0.003271
        61         -0.99636726        0.003271
        62         -0.99636735        0.003271
        63         -0.99636745        0.002804
        64         -0.99636746        0.002804
        65         -0.99636749        0.002100
        66         -0.99636750        0.002100
        67         -0.99636751        0.001836
        68         -0.99636756        0.001349
        69         -0.99636758        0.001156
        70         -0.99636758        0.000991
        71         -0.99636759        0.000991
        72         -0.99636759        0.000714
        73         -0.99636759        0.000624
        74         -0.99636760        0.000624
        75         -0.99636760        0.000624
        76         -0.99636760        0.000624
        77         -0.99636761        0.000624
        78         -0.99636761        0.000535
        79         -0.99636761        0.000535
        80         -0.99636761        0.000496
        81         -0.99636761        0.000496
        82         -0.99636761        0.000433
        83         -0.99636761        0.000433
        84         -0.99636761        0.000378
        85         -0.99636762        0.000278
        86         -0.99636762        0.000238
        87         -0.99636762        0.000238
        88         -0.99636762        0.000238
        89         -0.99636762        0.000204
        90         -0.99636762        0.000204
        91         -0.99636762        0.000204
        92         -0.99636762        0.000129
        93         -0.99636762        0.000129
        94         -0.99636762        0.000115
        95         -0.99636762        0.000115
        96         -0.99636762        0.000115
        97         -0.99636762        0.000071
        98         -0.99636762        0.000063
        99         -0.99636762        0.000063
       100         -0.99636762        0.000063
       101         -0.99636762        0.000054
       102         -0.99636762        0.000054
       103         -0.99636762        0.000054
       104         -0.99636762        0.000034
       105         -0.99636762        0.000021
       106         -0.99636762        0.000021
       107         -0.99636762        0.000021
       108         -0.99636762        0.000018
       109         -0.99636762        0.000016
       110         -0.99636762        0.000014
       111         -0.99636762        0.000014
       112         -0.99636762        0.000012
       113         -0.99636762        0.000012
       114         -0.99636762        0.000012
       115         -0.99636762        0.000012
       116         -0.99636762        0.000011
       117         -0.99636762        0.000010
       118         -0.99636762        0.000007
       119         -0.99636762        0.000006
       120         -0.99636762        0.000006
       121         -0.99636762        0.000004
       122         -0.99636762        0.000004
       123         -0.99636762        0.000002
       124         -0.99636762        0.000002
       125         -0.99636762        0.000002
       126         -0.99636762        0.000002
       127         -0.99636762        0.000002
       128         -0.99636762        0.000002
       129         -0.99636762        0.000002
       130         -0.99636762        0.000002
       131         -0.99636762        0.000002
       132         -0.99636762        0.000001
       133         -0.99636762        0.000001
       134         -0.99636762        0.000001

 Reached Convergence

 WFN1                     :
 --------------------------
 Total WFN1 energy  =          -0.9963676184
 1-Electron energy  =          -1.3045368679
 2-Electron energy  =           0.1540549843
 Correlation energy =           0.0000000000
 DFT XC energy      =           0.0000000000
 Entropy energy     =           0.0000000000
 Nuclear energy     =           0.1541142652

 conventional Hartree-Fock:
 --------------------------
 Total SCF energy  =          -0.9963676184
 2-Electron energy =           0.1540549843

                WFN1 Final Natural orbital energies and occupations
                ---------------------------------------------------

              Alpha       Beta            Alpha       Beta  
            --------    --------        --------    --------
       1      0.0000      0.0000          1.0000      0.0000
       2      0.0000      0.0000          1.0000      0.0000
       3      0.0000      0.0000          0.0000      0.0000
       4      0.0000      0.0000          0.0000      0.0000

             WFN1 Final Correlation function energies and occupations
             --------------------------------------------------------

              Alpha       Beta            Alpha       Beta  
            --------    --------        --------    --------
       1      0.0000      0.0000          1.0000      0.0000
       2      0.0000      0.0000          1.0000      0.0000
       3      0.0000      0.0000          0.0000      0.0000
       4      0.0000      0.0000          0.0000      0.0000

                WFN1 Final alpha-alpha 2-matrix occupation numbers
                --------------------------------------------------


 global array: g_momo1[1:4,1:4],  handle: -990 

            1           2           3           4  
       ----------- ----------- ----------- -----------
   1       0.00000     1.00000     0.00000     0.00000
   2       1.00000     0.00000     0.00000     0.00000
   3       0.00000     0.00000    -0.00000     0.00000
   4       0.00000     0.00000     0.00000     0.00000

                 WFN1 Final beta-beta 2-matrix occupation numbers
                 ------------------------------------------------


 global array: g_momo2[1:4,1:4],  handle: -989 

            1           2           3           4  
       ----------- ----------- ----------- -----------
   1       0.00000     0.00000     0.00000     0.00000
   2       0.00000     0.00000     0.00000     0.00000
   3       0.00000     0.00000     0.00000     0.00000
   4       0.00000     0.00000     0.00000     0.00000

                  WFN1 Final alpha Correlation Function Analysis
                  ----------------------------------------------


 global array: Ca[1:4,1:4],  handle: -981 

                     1                       2                       3                       4  
       ----------------------- ----------------------- ----------------------- -----------------------
   1       0.40360,   -0.62696     0.36278,   -0.55895    -0.00000,   -0.00000    -0.00000,   -0.00000
   2       0.31823,    0.58546    -0.35364,   -0.65644     0.00000,    0.00000    -0.00000,    0.00000
   3      -0.00000,    0.00000     0.00000,   -0.00000    -0.46000,   -0.66011     0.33810,    0.48821
   4       0.00000,   -0.00000    -0.00000,    0.00000    -0.46123,    0.37406    -0.62638,    0.50498

                   WFN1 Final beta Correlation Function Analysis
                   ---------------------------------------------


 global array: Cb[1:4,1:4],  handle: -980 

                     1                       2                       3                       4  
       ----------------------- ----------------------- ----------------------- -----------------------
   1       0.38764,   -0.64047     0.33706,   -0.56425     0.04196,    0.00418     0.07035,    0.02871
   2       0.28956,    0.58608    -0.33999,   -0.67080     0.01308,    0.07507    -0.03094,    0.01864
   3       0.01646,    0.04152    -0.02598,   -0.02986    -0.45423,   -0.69201     0.28968,    0.47678
   4      -0.02688,   -0.09740    -0.02954,   -0.00429    -0.41108,    0.37178    -0.62740,    0.53671

                     WFN1 Final Alpha Natural Orbital Analysis
                     -----------------------------------------

 Vector    1  Occ=1.000000D+00  E= 0.000000D+00
              MO Center=  0.0D+00,  0.0D+00, -3.9D-02, r^2= 3.7D+00
   Bfn.  Coefficient  Atom+Function         Bfn.  Coefficient  Atom+Function  
  ----- ------------  ---------------      ----- ------------  ---------------
     2     -0.473546  1 H  s                  4     -0.462929  2 H  s          
     1     -0.301503  1 H  s                  3     -0.294616  2 H  s          

 Vector    2  Occ=1.000000D+00  E= 0.000000D+00
              MO Center=  0.0D+00,  0.0D+00,  3.9D-02, r^2= 3.8D+00
   Bfn.  Coefficient  Atom+Function         Bfn.  Coefficient  Atom+Function  
  ----- ------------  ---------------      ----- ------------  ---------------
     4      0.477920  2 H  s                  2     -0.467402  1 H  s          
     3      0.309950  2 H  s                  1     -0.303254  1 H  s          

 Vector    3  Occ=6.759986D-15  E= 0.000000D+00
              MO Center=  0.0D+00,  0.0D+00, -1.0D-01, r^2= 4.0D+00
   Bfn.  Coefficient  Atom+Function         Bfn.  Coefficient  Atom+Function  
  ----- ------------  ---------------      ----- ------------  ---------------
     1      0.908403  1 H  s                  3      0.854073  2 H  s          
     2     -0.811715  1 H  s                  4     -0.760798  2 H  s          

 Vector    4  Occ=1.698568D-14  E= 0.000000D+00
              MO Center=  0.0D+00,  0.0D+00,  1.0D-01, r^2= 4.3D+00
   Bfn.  Coefficient  Atom+Function         Bfn.  Coefficient  Atom+Function  
  ----- ------------  ---------------      ----- ------------  ---------------
     3      0.924274  2 H  s                  1     -0.870934  1 H  s          
     4     -0.864990  2 H  s                  2      0.817399  1 H  s          


                     WFN1 Final Beta Natural Orbital Analysis
                     ----------------------------------------

 Vector    1  Occ=0.000000D+00  E= 0.000000D+00
              MO Center=  0.0D+00,  0.0D+00,  4.5D-02, r^2= 3.8D+00
   Bfn.  Coefficient  Atom+Function         Bfn.  Coefficient  Atom+Function  
  ----- ------------  ---------------      ----- ------------  ---------------
     4     -0.551425  2 H  s                  2     -0.522073  1 H  s          
     1     -0.223929  1 H  s                  3     -0.211896  2 H  s          

 Vector    2  Occ=0.000000D+00  E= 0.000000D+00
              MO Center=  0.0D+00,  0.0D+00, -3.1D-02, r^2= 3.8D+00
   Bfn.  Coefficient  Atom+Function         Bfn.  Coefficient  Atom+Function  
  ----- ------------  ---------------      ----- ------------  ---------------
     2     -0.539517  1 H  s                  4      0.465722  2 H  s          
     3      0.307721  2 H  s                  1     -0.239093  1 H  s          

 Vector    3  Occ=0.000000D+00  E= 0.000000D+00
              MO Center=  0.0D+00,  0.0D+00, -1.0D-01, r^2= 3.9D+00
   Bfn.  Coefficient  Atom+Function         Bfn.  Coefficient  Atom+Function  
  ----- ------------  ---------------      ----- ------------  ---------------
     1      0.939705  1 H  s                  3      0.867786  2 H  s          
     2     -0.742421  1 H  s                  4     -0.738610  2 H  s          

 Vector    4  Occ=0.000000D+00  E= 0.000000D+00
              MO Center=  0.0D+00,  0.0D+00,  9.0D-02, r^2= 4.2D+00
   Bfn.  Coefficient  Atom+Function         Bfn.  Coefficient  Atom+Function  
  ----- ------------  ---------------      ----- ------------  ---------------
     3      0.934851  2 H  s                  1     -0.881043  1 H  s          
     4     -0.838583  2 H  s                  2      0.809261  1 H  s          


 Task  times  cpu:       13.8s     wall:       18.6s
 Summary of allocated global arrays
-----------------------------------
  No active global arrays



                         GA Statistics for process    0
                         ------------------------------

       create   destroy   get      put      acc     scatter   gather  read&inc
calls:   44       44     8.22e+06 2.84e+04 2.25e+04    0        0       11     
number of processes/call 1.00e+00 1.00e+00 1.00e+00 0.00e+00 0.00e+00
bytes total:             1.06e+09 5.03e+06 3.59e+06 0.00e+00 0.00e+00 8.80e+01
bytes remote:            0.00e+00 0.00e+00 0.00e+00 0.00e+00 0.00e+00 0.00e+00
Max memory consumed for GA by this process: 10624 bytes
MA_summarize_allocated_blocks: starting scan ...
MA_summarize_allocated_blocks: scan completed: 0 heap blocks, 0 stack blocks
MA usage statistics:

	allocation statistics:
					      heap	     stack
					      ----	     -----
	current number of blocks	         0	         0
	maximum number of blocks	        19	        17
	current total bytes		         0	         0
	maximum total bytes		   3204328	  22508616
	maximum total K-bytes		      3205	     22509
	maximum total M-bytes		         4	        23


                                NWChem Input Module
                                -------------------





                                     CITATION
                                     --------
                Please cite the following reference when publishing
                           results obtained with NWChem:

                 M. Valiev, E.J. Bylaska, N. Govind, K. Kowalski,
              T.P. Straatsma, H.J.J. van Dam, D. Wang, J. Nieplocha,
                        E. Apra, T.L. Windus, W.A. de Jong
                 "NWChem: a comprehensive and scalable open-source
                  solution for large scale molecular simulations"
                      Comput. Phys. Commun. 181, 1477 (2010)
                           doi:10.1016/j.cpc.2010.04.018

                                      AUTHORS
                                      -------
          E. Apra, E. J. Bylaska, W. A. de Jong, N. Govind, K. Kowalski,
       T. P. Straatsma, M. Valiev, H. J. J. van Dam, D. Wang, T. L. Windus,
        J. Hammond, J. Autschbach, K. Bhaskaran-Nair, J. Brabec, K. Lopata,
    S. A. Fischer, S. Krishnamoorthy, M. Jacquelin, W. Ma, M. Klemm, O. Villa,
      Y. Chen, V. Anisimov, F. Aquino, S. Hirata, M. T. Hackler, V. Konjkov,
      T. Risthaus, M. Malagoli, A. Marenich, A. Otero-de-la-Roza, J. Mullin,
        P. Nichols, R. Peverati, J. Pittner, Y. Zhao, P.-D. Fan, A. Fonari,
       M. Williamson, R. J. Harrison, J. R. Rehr, M. Dupuis, D. Silverstein,
    D. M. A. Smith, J. Nieplocha, V. Tipparaju, M. Krishnan, B. E. Van Kuiken,
        A. Vazquez-Mayagoitia, L. Jensen, M. Swart, Q. Wu, T. Van Voorhis,
     A. A. Auer, M. Nooijen, L. D. Crosby, E. Brown, G. Cisneros, G. I. Fann,
   H. Fruchtl, J. Garza, K. Hirao, R. A. Kendall, J. A. Nichols, K. Tsemekhman,
    K. Wolinski, J. Anchell, D. E. Bernholdt, P. Borowski, T. Clark, D. Clerc,
   H. Dachsel, M. J. O. Deegan, K. Dyall, D. Elwood, E. Glendening, M. Gutowski,
   A. C. Hess, J. Jaffe, B. G. Johnson, J. Ju, R. Kobayashi, R. Kutteh, Z. Lin,
   R. Littlefield, X. Long, B. Meng, T. Nakajima, S. Niu, L. Pollack, M. Rosing,
   K. Glaesemann, G. Sandrone, M. Stave, H. Taylor, G. Thomas, J. H. van Lenthe,
                               A. T. Wong, Z. Zhang.

 Total times  cpu:       13.8s     wall:       18.6s
