 argument  1 = input-wf.nw



============================== echo of input deck ==============================
echo
start wfn1_dat
geometry units au noautoz
  H 0 0 -.54434600000000000000
  H 0 0  .54434600000000000000
  symmetry cs
end
basis
  H library 6-31g
end
set wfn1:input_vectors "atomic"
set wfn1:solver "monte-carlo"
set wfn1:print_error F
set wfn1:t_initial 0.1
set wfn1:nopen 2
#set wfn1:corr_expr "wfn1_mx"
set wfn1:corr_expr "wfn1c"
set wfn1:t_bath 0.0
set wfn1:maxit  20000
task wfn1 energy
================================================================================


                                         
                                         


              Northwest Computational Chemistry Package (NWChem) 6.8
              ------------------------------------------------------


                    Environmental Molecular Sciences Laboratory
                       Pacific Northwest National Laboratory
                                Richland, WA 99352

                              Copyright (c) 1994-2015
                       Pacific Northwest National Laboratory
                            Battelle Memorial Institute

             NWChem is an open-source computational chemistry package
                        distributed under the terms of the
                      Educational Community License (ECL) 2.0
             A copy of the license is included with this distribution
                              in the LICENSE.TXT file

                                  ACKNOWLEDGMENT
                                  --------------

            This software and its documentation were developed at the
            EMSL at Pacific Northwest National Laboratory, a multiprogram
            national laboratory, operated for the U.S. Department of Energy
            by Battelle under Contract Number DE-AC05-76RL01830. Support
            for this work was provided by the Department of Energy Office
            of Biological and Environmental Research, Office of Basic
            Energy Sciences, and the Office of Advanced Scientific Computing.


           Job information
           ---------------

    hostname        = erato
    program         = ../../../bin/LINUX64/nwchem
    date            = Sat Mar  6 01:16:19 2021

    compiled        = Sat_Mar_06_01:07:04_2021
    source          = /home/hvandam/nwchem-1-wfn1
    nwchem branch   = Development
    nwchem revision = nwchem_on_git-124-gad72d19fff205e319ffbbf2bca37a04ded6ad57b
    ga revision     = nwchem_on_git-124-gad72d19
    use scalapack   = F
    input           = input-wf.nw
    prefix          = wfn1_dat.
    data base       = ./wfn1_dat.db
    status          = startup
    nproc           =        1
    time left       =     -1s



           Memory information
           ------------------

    heap     =   13107200 doubles =    100.0 Mbytes
    stack    =   13107197 doubles =    100.0 Mbytes
    global   =   26214400 doubles =    200.0 Mbytes (distinct from heap & stack)
    total    =   52428797 doubles =    400.0 Mbytes
    verify   = yes
    hardfail = no 


           Directory information
           ---------------------

  0 permanent = .
  0 scratch   = .




                                NWChem Input Module
                                -------------------


 Turning off AUTOSYM since
 SYMMETRY directive was detected!



                             Geometry "geometry" -> ""
                             -------------------------

 Output coordinates in a.u. (scale by  1.000000000 to convert to a.u.)

  No.       Tag          Charge          X              Y              Z
 ---- ---------------- ---------- -------------- -------------- --------------
    1 H                    1.0000     0.00000000     0.00000000    -0.54434600
    2 H                    1.0000     0.00000000     0.00000000     0.54434600

      Atomic Mass 
      ----------- 

      H                  1.007825


 Effective nuclear repulsion energy (a.u.)       0.9185334328

            Nuclear Dipole moment (a.u.) 
            ----------------------------
        X                 Y               Z
 ---------------- ---------------- ----------------
     0.0000000000     0.0000000000     0.0000000000

      Symmetry information
      --------------------

 Group name             Cs        
 Group number              2
 Group order               2
 No. of unique centers     1

      Symmetry unique atoms

     1


            XYZ format geometry
            -------------------
     2
 geometry
 H                     0.00000000     0.00000000    -0.28805552
 H                     0.00000000     0.00000000     0.28805552

 ==============================================================================
                                internuclear distances
 ------------------------------------------------------------------------------
       center one      |      center two      | atomic units |       a.u.
 ------------------------------------------------------------------------------
    2 H                |   1 H                |     1.08869  |     1.08869
 ------------------------------------------------------------------------------
                         number of included internuclear distances:          1
 ==============================================================================



                      Basis "ao basis" -> "" (cartesian)
                      -----
  H (Hydrogen)
  ------------
            Exponent  Coefficients 
       -------------- ---------------------------------------------------------
  1 S  1.87311370E+01  0.033495
  1 S  2.82539370E+00  0.234727
  1 S  6.40121700E-01  0.813757

  2 S  1.61277800E-01  1.000000



 Summary of "ao basis" -> "" (cartesian)
 ------------------------------------------------------------------------------
       Tag                 Description            Shells   Functions and Types
 ---------------- ------------------------------  ------  ---------------------
 H                           6-31g                   2        2   2s



                                NWChem WFN1 Module
                                ------------------



          No. of electrons :     2
           Alpha electrons :     2
            Beta electrons :     0
          Charge           :     0
          Spin multiplicity:     3

 HvD: wfn1_inpdft
 HvD: nquad_task =                     1
 HvD: iangquad   =                     0
 HvD: gridtype   = user      
 HvD: leb        =  T
 HvD: radgrid    = murakn    
 HvD: trunc_neigh=  T
 HvD: lssw       =  T
 HvD: whichssw   = erf1    
 HvD: mxnrad     =                     0
 HvD: mxnang     =                     0
 HVD: wfn1: movecs_in  = atomic                                                                                                                                                                                                                                                          
 HVD: wfn1: movecs_out = ./wfn1_dat.movecs                                                                                                                                                                                                                                               

      Superposition of Atomic Density Guess
      -------------------------------------

 Sum of atomic energies:          -0.99646508

      Non-variational initial energy
      ------------------------------

 Total energy =      -0.827900
 1-e energy   =      -2.401154
 2-e energy   =       0.654721
 HOMO         =      -0.673044
 LUMO         =       0.218567

 iteration              energy           error
 ---------              ------           -----
         0         -0.59665933        0.080000
         1         -0.59866797        0.080000
         2         -0.59937464        0.080000
         3         -0.60008979        0.080000
         4         -0.60130670        0.080000
         5         -0.60218423        0.080000
         6         -0.60339904        0.080000
         7         -0.60549507        0.080000
         8         -0.60658769        0.080000
         9         -0.60677723        0.080000
        10         -0.60879551        0.080000
        11         -0.61162701        0.080000
        12         -0.61272862        0.080000
        13         -0.61476119        0.080000
        14         -0.61867601        0.080000
        15         -0.61941928        0.080000
        16         -0.62006123        0.080000
        17         -0.62020671        0.080000
        18         -0.62022226        0.080000
        19         -0.62129249        0.080000
        20         -0.62214090        0.080000
        21         -0.62268302        0.080000
        22         -0.62301713        0.080000
        23         -0.62399942        0.080000
        24         -0.62502907        0.080000
        25         -0.62569965        0.080000
        26         -0.62574420        0.080000
        27         -0.62601769        0.080000
        28         -0.62648962        0.080000
        29         -0.62660808        0.080000
        30         -0.62666955        0.080000
        31         -0.62685699        0.080000
        32         -0.62703341        0.080000
        33         -0.62743605        0.080000
        34         -0.62753458        0.080000
        35         -0.62755568        0.080000
        36         -0.62769626        0.080000
        37         -0.62772267        0.065957
        38         -0.62782255        0.065957
        39         -0.62787007        0.048468
        40         -0.62788150        0.048468
        41         -0.62791133        0.048468
        42         -0.62791833        0.048468
        43         -0.62792078        0.048468
        44         -0.62793178        0.042356
        45         -0.62793994        0.042356
        46         -0.62795405        0.042356
        47         -0.62795756        0.042356
        48         -0.62796420        0.032974
        49         -0.62797010        0.021175
        50         -0.62797092        0.021175
        51         -0.62797182        0.015264
        52         -0.62797449        0.015264
        53         -0.62797481        0.015264
        54         -0.62797603        0.015264
        55         -0.62797724        0.011217
        56         -0.62797782        0.011217
        57         -0.62797877        0.011217
        58         -0.62798009        0.011217
        59         -0.62798206        0.011217
        60         -0.62798681        0.010187
        61         -0.62798807        0.007930
        62         -0.62798828        0.007930
        63         -0.62798889        0.007930
        64         -0.62798910        0.006798
        65         -0.62798912        0.006798
        66         -0.62798924        0.006798
        67         -0.62798931        0.006798
        68         -0.62798951        0.003601
        69         -0.62799015        0.003270
        70         -0.62799043        0.003270
        71         -0.62799051        0.002803
        72         -0.62799053        0.002450
        73         -0.62799054        0.002450
        74         -0.62799058        0.002100
        75         -0.62799062        0.002100
        76         -0.62799062        0.002100
        77         -0.62799062        0.001298
        78         -0.62799062        0.001298
        79         -0.62799063        0.001298
        80         -0.62799068        0.001298
        81         -0.62799069        0.001298
        82         -0.62799069        0.000972
        83         -0.62799069        0.000636
        84         -0.62799070        0.000546
        85         -0.62799071        0.000468
        86         -0.62799071        0.000468
        87         -0.62799071        0.000468
        88         -0.62799071        0.000283
        89         -0.62799071        0.000283
        90         -0.62799071        0.000283
        91         -0.62799071        0.000253
        92         -0.62799071        0.000189
        93         -0.62799071        0.000189
        94         -0.62799071        0.000189
        95         -0.62799071        0.000096
        96         -0.62799071        0.000086
        97         -0.62799071        0.000074
        98         -0.62799071        0.000074
        99         -0.62799071        0.000063
       100         -0.62799071        0.000055
       101         -0.62799071        0.000055
       102         -0.62799071        0.000055
       103         -0.62799071        0.000055
       104         -0.62799071        0.000055
       105         -0.62799071        0.000047
       106         -0.62799071        0.000047
       107         -0.62799071        0.000047
       108         -0.62799071        0.000047
       109         -0.62799071        0.000047
       110         -0.62799071        0.000044
       111         -0.62799071        0.000044
       112         -0.62799071        0.000044
       113         -0.62799071        0.000041
       114         -0.62799071        0.000030
       115         -0.62799071        0.000030
       116         -0.62799071        0.000018
       117         -0.62799071        0.000016
       118         -0.62799071        0.000014
       119         -0.62799071        0.000012
       120         -0.62799071        0.000012
       121         -0.62799071        0.000012
       122         -0.62799071        0.000010
       123         -0.62799071        0.000010
       124         -0.62799071        0.000008
       125         -0.62799071        0.000006
       126         -0.62799071        0.000006
       127         -0.62799071        0.000004
       128         -0.62799071        0.000004
       129         -0.62799071        0.000004
       130         -0.62799071        0.000004
       131         -0.62799071        0.000004
       132         -0.62799071        0.000004
       133         -0.62799071        0.000004
       134         -0.62799071        0.000002
       135         -0.62799071        0.000002
       136         -0.62799071        0.000002
       137         -0.62799071        0.000001
       138         -0.62799071        0.000001
       139         -0.62799071        0.000001
       140         -0.62799071        0.000001
       141         -0.62799071        0.000001
       142         -0.62799071        0.000001
       143         -0.62799071        0.000001
       144         -0.62799071        0.000001

 Reached Convergence

 WFN1                     :
 --------------------------
 Total WFN1 energy  =          -0.6279907098
 1-Electron energy  =          -1.9466343027
 2-Electron energy  =           0.4001101602
 Correlation energy =           0.0000000000
 DFT XC energy      =           0.0000000000
 Entropy energy     =           0.0000000000
 Nuclear energy     =           0.9185334328

 conventional Hartree-Fock:
 --------------------------
 Total SCF energy  =          -0.6279907098
 2-Electron energy =           0.4001101602

                WFN1 Final Natural orbital energies and occupations
                ---------------------------------------------------

              Alpha       Beta            Alpha       Beta  
            --------    --------        --------    --------
       1      0.0000      0.0000          1.0000      0.0000
       2      0.0000      0.0000          1.0000      0.0000
       3      0.0000      0.0000          0.0000      0.0000
       4      0.0000      0.0000          0.0000      0.0000

             WFN1 Final Correlation function energies and occupations
             --------------------------------------------------------

              Alpha       Beta            Alpha       Beta  
            --------    --------        --------    --------
       1      0.0000      0.0000          1.0000      0.0000
       2      0.0000      0.0000          1.0000      0.0000
       3      0.0000      0.0000          0.0000      0.0000
       4      0.0000      0.0000          0.0000      0.0000

                WFN1 Final alpha-alpha 2-matrix occupation numbers
                --------------------------------------------------


 global array: g_momo1[1:4,1:4],  handle: -990 

            1           2           3           4  
       ----------- ----------- ----------- -----------
   1      -0.00000     1.00000     0.00000     0.00000
   2       1.00000     0.00000     0.00000     0.00000
   3       0.00000     0.00000     0.00000     0.00000
   4       0.00000     0.00000     0.00000     0.00000

                 WFN1 Final beta-beta 2-matrix occupation numbers
                 ------------------------------------------------


 global array: g_momo2[1:4,1:4],  handle: -989 

            1           2           3           4  
       ----------- ----------- ----------- -----------
   1       0.00000     0.00000     0.00000     0.00000
   2       0.00000     0.00000     0.00000     0.00000
   3       0.00000     0.00000     0.00000     0.00000
   4       0.00000     0.00000     0.00000     0.00000

                  WFN1 Final alpha Correlation Function Analysis
                  ----------------------------------------------


 global array: Ca[1:4,1:4],  handle: -981 

                     1                       2                       3                       4  
       ----------------------- ----------------------- ----------------------- -----------------------
   1       0.10568,   -0.98078     0.00696,   -0.16389     0.00000,    0.00000     0.00000,   -0.00000
   2       0.00233,    0.16402    -0.07791,   -0.98337     0.00000,    0.00000     0.00000,   -0.00000
   3      -0.00000,   -0.00000    -0.00000,   -0.00000    -0.96518,   -0.25076     0.07387,    0.00980
   4      -0.00000,   -0.00000    -0.00000,    0.00000     0.03633,    0.06506     0.58883,    0.80481

                   WFN1 Final beta Correlation Function Analysis
                   ---------------------------------------------


 global array: Cb[1:4,1:4],  handle: -980 

                     1                       2                       3                       4  
       ----------------------- ----------------------- ----------------------- -----------------------
   1       0.11759,   -0.98290    -0.01791,    0.11452     0.03500,    0.06681    -0.02918,    0.01041
   2      -0.01757,   -0.10716    -0.08994,   -0.98443     0.01812,    0.07725    -0.06810,    0.00885
   3      -0.05549,   -0.06070    -0.06518,   -0.02631    -0.95959,   -0.25447     0.03704,    0.03684
   4       0.03859,   -0.00643     0.05592,   -0.03605     0.04204,    0.02610     0.59223,    0.80054

                     WFN1 Final Alpha Natural Orbital Analysis
                     -----------------------------------------

 Vector    1  Occ=1.000000D+00  E= 0.000000D+00
              MO Center=  0.0D+00,  0.0D+00,  2.0D-02, r^2= 4.9D-01
   Bfn.  Coefficient  Atom+Function         Bfn.  Coefficient  Atom+Function  
  ----- ------------  ---------------      ----- ------------  ---------------
     3      0.429685  2 H  s                  1      0.417928  1 H  s          
     4      0.206241  2 H  s                  2      0.108833  1 H  s          

 Vector    2  Occ=1.000000D+00  E= 0.000000D+00
              MO Center=  0.0D+00,  0.0D+00, -2.0D-02, r^2= 1.9D+00
   Bfn.  Coefficient  Atom+Function         Bfn.  Coefficient  Atom+Function  
  ----- ------------  ---------------      ----- ------------  ---------------
     2      2.046439  1 H  s                  4     -2.038927  2 H  s          
     1      0.256663  1 H  s                  3     -0.236452  2 H  s          

 Vector    3  Occ=8.310129D-15  E= 0.000000D+00
              MO Center=  0.0D+00,  0.0D+00, -3.5D-03, r^2= 1.7D+00
   Bfn.  Coefficient  Atom+Function         Bfn.  Coefficient  Atom+Function  
  ----- ------------  ---------------      ----- ------------  ---------------
     2     -0.702472  1 H  s                  4     -0.689311  2 H  s          
     1      0.655742  1 H  s                  3      0.646234  2 H  s          

 Vector    4  Occ=1.007543D-14  E= 0.000000D+00
              MO Center=  0.0D+00,  0.0D+00,  3.5D-03, r^2= 1.1D+00
   Bfn.  Coefficient  Atom+Function         Bfn.  Coefficient  Atom+Function  
  ----- ------------  ---------------      ----- ------------  ---------------
     2     -1.780203  1 H  s                  4      1.785339  2 H  s          
     1      1.285590  1 H  s                  3     -1.290395  2 H  s          


                     WFN1 Final Beta Natural Orbital Analysis
                     ----------------------------------------

 Vector    1  Occ=0.000000D+00  E= 0.000000D+00
              MO Center=  0.0D+00,  0.0D+00, -5.9D-02, r^2= 7.3D-01
   Bfn.  Coefficient  Atom+Function         Bfn.  Coefficient  Atom+Function  
  ----- ------------  ---------------      ----- ------------  ---------------
     2      0.620982  1 H  s                  3      0.435175  2 H  s          
     1      0.173570  1 H  s                  4     -0.079014  2 H  s          

 Vector    2  Occ=0.000000D+00  E= 0.000000D+00
              MO Center=  0.0D+00,  0.0D+00,  3.4D-02, r^2= 1.9D+00
   Bfn.  Coefficient  Atom+Function         Bfn.  Coefficient  Atom+Function  
  ----- ------------  ---------------      ----- ------------  ---------------
     2      2.095196  1 H  s                  4     -2.083087  2 H  s          
     3     -0.258118  2 H  s                  1      0.154815  1 H  s          

 Vector    3  Occ=0.000000D+00  E= 0.000000D+00
              MO Center=  0.0D+00,  0.0D+00,  2.7D-02, r^2= 1.5D+00
   Bfn.  Coefficient  Atom+Function         Bfn.  Coefficient  Atom+Function  
  ----- ------------  ---------------      ----- ------------  ---------------
     1      0.741599  1 H  s                  4     -0.715499  2 H  s          
     3      0.683409  2 H  s                  2     -0.601950  1 H  s          

 Vector    4  Occ=0.000000D+00  E= 0.000000D+00
              MO Center=  0.0D+00,  0.0D+00, -2.2D-03, r^2= 1.0D+00
   Bfn.  Coefficient  Atom+Function         Bfn.  Coefficient  Atom+Function  
  ----- ------------  ---------------      ----- ------------  ---------------
     4      1.733468  2 H  s                  2     -1.650616  1 H  s          
     1      1.311188  1 H  s                  3     -1.265001  2 H  s          


 Task  times  cpu:       14.7s     wall:       21.5s
 Summary of allocated global arrays
-----------------------------------
  No active global arrays



                         GA Statistics for process    0
                         ------------------------------

       create   destroy   get      put      acc     scatter   gather  read&inc
calls:   44       44     8.03e+06 2.78e+04 2.20e+04    0        0       11     
number of processes/call 1.00e+00 1.00e+00 1.00e+00 0.00e+00 0.00e+00
bytes total:             1.03e+09 4.91e+06 3.51e+06 0.00e+00 0.00e+00 8.80e+01
bytes remote:            0.00e+00 0.00e+00 0.00e+00 0.00e+00 0.00e+00 0.00e+00
Max memory consumed for GA by this process: 10624 bytes
MA_summarize_allocated_blocks: starting scan ...
MA_summarize_allocated_blocks: scan completed: 0 heap blocks, 0 stack blocks
MA usage statistics:

	allocation statistics:
					      heap	     stack
					      ----	     -----
	current number of blocks	         0	         0
	maximum number of blocks	        19	        17
	current total bytes		         0	         0
	maximum total bytes		   3204328	  22508616
	maximum total K-bytes		      3205	     22509
	maximum total M-bytes		         4	        23


                                NWChem Input Module
                                -------------------





                                     CITATION
                                     --------
                Please cite the following reference when publishing
                           results obtained with NWChem:

                 M. Valiev, E.J. Bylaska, N. Govind, K. Kowalski,
              T.P. Straatsma, H.J.J. van Dam, D. Wang, J. Nieplocha,
                        E. Apra, T.L. Windus, W.A. de Jong
                 "NWChem: a comprehensive and scalable open-source
                  solution for large scale molecular simulations"
                      Comput. Phys. Commun. 181, 1477 (2010)
                           doi:10.1016/j.cpc.2010.04.018

                                      AUTHORS
                                      -------
          E. Apra, E. J. Bylaska, W. A. de Jong, N. Govind, K. Kowalski,
       T. P. Straatsma, M. Valiev, H. J. J. van Dam, D. Wang, T. L. Windus,
        J. Hammond, J. Autschbach, K. Bhaskaran-Nair, J. Brabec, K. Lopata,
    S. A. Fischer, S. Krishnamoorthy, M. Jacquelin, W. Ma, M. Klemm, O. Villa,
      Y. Chen, V. Anisimov, F. Aquino, S. Hirata, M. T. Hackler, V. Konjkov,
      T. Risthaus, M. Malagoli, A. Marenich, A. Otero-de-la-Roza, J. Mullin,
        P. Nichols, R. Peverati, J. Pittner, Y. Zhao, P.-D. Fan, A. Fonari,
       M. Williamson, R. J. Harrison, J. R. Rehr, M. Dupuis, D. Silverstein,
    D. M. A. Smith, J. Nieplocha, V. Tipparaju, M. Krishnan, B. E. Van Kuiken,
        A. Vazquez-Mayagoitia, L. Jensen, M. Swart, Q. Wu, T. Van Voorhis,
     A. A. Auer, M. Nooijen, L. D. Crosby, E. Brown, G. Cisneros, G. I. Fann,
   H. Fruchtl, J. Garza, K. Hirao, R. A. Kendall, J. A. Nichols, K. Tsemekhman,
    K. Wolinski, J. Anchell, D. E. Bernholdt, P. Borowski, T. Clark, D. Clerc,
   H. Dachsel, M. J. O. Deegan, K. Dyall, D. Elwood, E. Glendening, M. Gutowski,
   A. C. Hess, J. Jaffe, B. G. Johnson, J. Ju, R. Kobayashi, R. Kutteh, Z. Lin,
   R. Littlefield, X. Long, B. Meng, T. Nakajima, S. Niu, L. Pollack, M. Rosing,
   K. Glaesemann, G. Sandrone, M. Stave, H. Taylor, G. Thomas, J. H. van Lenthe,
                               A. T. Wong, Z. Zhang.

 Total times  cpu:       14.7s     wall:       21.5s
