 argument  1 = input-wf.nw



============================== echo of input deck ==============================
echo
start wfn1_dat
geometry units au noautoz
  H 0 0 -4.24434600000000000000
  H 0 0  4.24434600000000000000
  symmetry cs
end
basis
  H library 6-31g
end
set wfn1:input_vectors "atomic"
set wfn1:solver "monte-carlo"
set wfn1:print_error F
set wfn1:t_initial 0.1
set wfn1:nopen 2
#set wfn1:corr_expr "wfn1_mx"
set wfn1:corr_expr "wfn1c"
set wfn1:t_bath 0.0
set wfn1:maxit  20000
task wfn1 energy
================================================================================


                                         
                                         


              Northwest Computational Chemistry Package (NWChem) 6.8
              ------------------------------------------------------


                    Environmental Molecular Sciences Laboratory
                       Pacific Northwest National Laboratory
                                Richland, WA 99352

                              Copyright (c) 1994-2015
                       Pacific Northwest National Laboratory
                            Battelle Memorial Institute

             NWChem is an open-source computational chemistry package
                        distributed under the terms of the
                      Educational Community License (ECL) 2.0
             A copy of the license is included with this distribution
                              in the LICENSE.TXT file

                                  ACKNOWLEDGMENT
                                  --------------

            This software and its documentation were developed at the
            EMSL at Pacific Northwest National Laboratory, a multiprogram
            national laboratory, operated for the U.S. Department of Energy
            by Battelle under Contract Number DE-AC05-76RL01830. Support
            for this work was provided by the Department of Energy Office
            of Biological and Environmental Research, Office of Basic
            Energy Sciences, and the Office of Advanced Scientific Computing.


           Job information
           ---------------

    hostname        = erato
    program         = ../../../bin/LINUX64/nwchem
    date            = Sat Mar  6 01:43:09 2021

    compiled        = Sat_Mar_06_01:07:04_2021
    source          = /home/hvandam/nwchem-1-wfn1
    nwchem branch   = Development
    nwchem revision = nwchem_on_git-124-gad72d19fff205e319ffbbf2bca37a04ded6ad57b
    ga revision     = nwchem_on_git-124-gad72d19
    use scalapack   = F
    input           = input-wf.nw
    prefix          = wfn1_dat.
    data base       = ./wfn1_dat.db
    status          = startup
    nproc           =        1
    time left       =     -1s



           Memory information
           ------------------

    heap     =   13107200 doubles =    100.0 Mbytes
    stack    =   13107197 doubles =    100.0 Mbytes
    global   =   26214400 doubles =    200.0 Mbytes (distinct from heap & stack)
    total    =   52428797 doubles =    400.0 Mbytes
    verify   = yes
    hardfail = no 


           Directory information
           ---------------------

  0 permanent = .
  0 scratch   = .




                                NWChem Input Module
                                -------------------


 Turning off AUTOSYM since
 SYMMETRY directive was detected!



                             Geometry "geometry" -> ""
                             -------------------------

 Output coordinates in a.u. (scale by  1.000000000 to convert to a.u.)

  No.       Tag          Charge          X              Y              Z
 ---- ---------------- ---------- -------------- -------------- --------------
    1 H                    1.0000     0.00000000     0.00000000    -4.24434600
    2 H                    1.0000     0.00000000     0.00000000     4.24434600

      Atomic Mass 
      ----------- 

      H                  1.007825


 Effective nuclear repulsion energy (a.u.)       0.1178037794

            Nuclear Dipole moment (a.u.) 
            ----------------------------
        X                 Y               Z
 ---------------- ---------------- ----------------
     0.0000000000     0.0000000000     0.0000000000

      Symmetry information
      --------------------

 Group name             Cs        
 Group number              2
 Group order               2
 No. of unique centers     1

      Symmetry unique atoms

     1


            XYZ format geometry
            -------------------
     2
 geometry
 H                     0.00000000     0.00000000    -2.24601134
 H                     0.00000000     0.00000000     2.24601134

                      Basis "ao basis" -> "" (cartesian)
                      -----
  H (Hydrogen)
  ------------
            Exponent  Coefficients 
       -------------- ---------------------------------------------------------
  1 S  1.87311370E+01  0.033495
  1 S  2.82539370E+00  0.234727
  1 S  6.40121700E-01  0.813757

  2 S  1.61277800E-01  1.000000



 Summary of "ao basis" -> "" (cartesian)
 ------------------------------------------------------------------------------
       Tag                 Description            Shells   Functions and Types
 ---------------- ------------------------------  ------  ---------------------
 H                           6-31g                   2        2   2s



                                NWChem WFN1 Module
                                ------------------



          No. of electrons :     2
           Alpha electrons :     2
            Beta electrons :     0
          Charge           :     0
          Spin multiplicity:     3

 HvD: wfn1_inpdft
 HvD: nquad_task =                     1
 HvD: iangquad   =                     0
 HvD: gridtype   = user      
 HvD: leb        =  T
 HvD: radgrid    = murakn    
 HvD: trunc_neigh=  T
 HvD: lssw       =  T
 HvD: whichssw   = erf1    
 HvD: mxnrad     =                     0
 HvD: mxnang     =                     0
 HVD: wfn1: movecs_in  = atomic                                                                                                                                                                                                                                                          
 HVD: wfn1: movecs_out = ./wfn1_dat.movecs                                                                                                                                                                                                                                               

      Superposition of Atomic Density Guess
      -------------------------------------

 Sum of atomic energies:          -0.99646508

      Non-variational initial energy
      ------------------------------

 Total energy =      -0.682110
 1-e energy   =      -1.232073
 2-e energy   =       0.432159
 HOMO         =      -0.192462
 LUMO         =      -0.189910

 iteration              energy           error
 ---------              ------           -----
         0         -0.98469728        0.080000
         1         -0.98665426        0.080000
         2         -0.98868491        0.080000
         3         -0.98873626        0.080000
         4         -0.98991075        0.080000
         5         -0.99009622        0.080000
         6         -0.99080311        0.080000
         7         -0.99160543        0.080000
         8         -0.99161063        0.080000
         9         -0.99180844        0.080000
        10         -0.99198891        0.080000
        11         -0.99253021        0.080000
        12         -0.99253236        0.080000
        13         -0.99254713        0.080000
        14         -0.99266503        0.080000
        15         -0.99273611        0.080000
        16         -0.99286937        0.080000
        17         -0.99315856        0.080000
        18         -0.99373700        0.080000
        19         -0.99421133        0.080000
        20         -0.99422610        0.080000
        21         -0.99451992        0.080000
        22         -0.99459678        0.080000
        23         -0.99506192        0.080000
        24         -0.99533552        0.080000
        25         -0.99538451        0.080000
        26         -0.99547864        0.080000
        27         -0.99559844        0.080000
        28         -0.99564605        0.080000
        29         -0.99570344        0.080000
        30         -0.99604086        0.080000
        31         -0.99612658        0.080000
        32         -0.99622004        0.080000
        33         -0.99623946        0.080000
        34         -0.99628211        0.074037
        35         -0.99638112        0.074037
        36         -0.99639155        0.054406
        37         -0.99640967        0.033619
        38         -0.99641174        0.028819
        39         -0.99641318        0.024705
        40         -0.99641383        0.021178
        41         -0.99642447        0.021178
        42         -0.99643872        0.021178
        43         -0.99643948        0.018154
        44         -0.99644099        0.018154
        45         -0.99644274        0.018154
        46         -0.99644295        0.018154
        47         -0.99644684        0.016173
        48         -0.99644872        0.016173
        49         -0.99644944        0.016173
        50         -0.99645238        0.014688
        51         -0.99645313        0.014688
        52         -0.99645517        0.014688
        53         -0.99645619        0.014688
        54         -0.99645619        0.013085
        55         -0.99645747        0.013085
        56         -0.99645813        0.013085
        57         -0.99645820        0.009993
        58         -0.99645883        0.009993
        59         -0.99645889        0.009993
        60         -0.99646012        0.008902
        61         -0.99646257        0.008902
        62         -0.99646266        0.007930
        63         -0.99646357        0.005828
        64         -0.99646461        0.005828
        65         -0.99646467        0.004996
        66         -0.99646487        0.003671
        67         -0.99646503        0.003671
        68         -0.99646505        0.003671
        69         -0.99646505        0.003671
        70         -0.99646506        0.003147
        71         -0.99646513        0.003147
        72         -0.99646523        0.003147
        73         -0.99646540        0.002403
        74         -0.99646541        0.002403
        75         -0.99646548        0.002141
        76         -0.99646551        0.002141
        77         -0.99646552        0.001871
        78         -0.99646556        0.001871
        79         -0.99646560        0.001375
        80         -0.99646563        0.001375
        81         -0.99646565        0.001201
        82         -0.99646568        0.001201
        83         -0.99646569        0.001201
        84         -0.99646570        0.001201
        85         -0.99646571        0.001050
        86         -0.99646572        0.000802
        87         -0.99646572        0.000802
        88         -0.99646572        0.000578
        89         -0.99646573        0.000505
        90         -0.99646573        0.000505
        91         -0.99646573        0.000364
        92         -0.99646574        0.000268
        93         -0.99646574        0.000268
        94         -0.99646574        0.000268
        95         -0.99646574        0.000229
        96         -0.99646574        0.000229
        97         -0.99646574        0.000229
        98         -0.99646574        0.000204
        99         -0.99646574        0.000204
       100         -0.99646574        0.000204
       101         -0.99646574        0.000204
       102         -0.99646574        0.000204
       103         -0.99646574        0.000204
       104         -0.99646574        0.000204
       105         -0.99646574        0.000129
       106         -0.99646574        0.000088
       107         -0.99646574        0.000088
       108         -0.99646574        0.000088
       109         -0.99646574        0.000088
       110         -0.99646574        0.000088
       111         -0.99646574        0.000063
       112         -0.99646574        0.000063
       113         -0.99646574        0.000063
       114         -0.99646574        0.000063
       115         -0.99646574        0.000063
       116         -0.99646574        0.000041
       117         -0.99646574        0.000041
       118         -0.99646574        0.000041
       119         -0.99646574        0.000032
       120         -0.99646574        0.000029
       121         -0.99646574        0.000025
       122         -0.99646574        0.000025
       123         -0.99646574        0.000025
       124         -0.99646574        0.000025
       125         -0.99646574        0.000025
       126         -0.99646574        0.000021
       127         -0.99646574        0.000019
       128         -0.99646574        0.000017
       129         -0.99646574        0.000017
       130         -0.99646574        0.000017
       131         -0.99646574        0.000014
       132         -0.99646574        0.000014
       133         -0.99646574        0.000013
       134         -0.99646574        0.000009
       135         -0.99646574        0.000009
       136         -0.99646574        0.000009
       137         -0.99646574        0.000007
       138         -0.99646574        0.000005
       139         -0.99646574        0.000005
       140         -0.99646574        0.000005
       141         -0.99646574        0.000005
       142         -0.99646574        0.000004
       143         -0.99646574        0.000004
       144         -0.99646574        0.000004
       145         -0.99646574        0.000004
       146         -0.99646574        0.000003
       147         -0.99646574        0.000003
       148         -0.99646574        0.000003
       149         -0.99646574        0.000003
       150         -0.99646574        0.000002
       151         -0.99646574        0.000002
       152         -0.99646574        0.000002
       153         -0.99646574        0.000002
       154         -0.99646574        0.000001
       155         -0.99646574        0.000001
       156         -0.99646574        0.000001
       157         -0.99646574        0.000001

 Reached Convergence

 WFN1                     :
 --------------------------
 Total WFN1 energy  =          -0.9964657398
 1-Electron energy  =          -1.2320737840
 2-Electron energy  =           0.1178042648
 Correlation energy =           0.0000000000
 DFT XC energy      =           0.0000000000
 Entropy energy     =           0.0000000000
 Nuclear energy     =           0.1178037794

 conventional Hartree-Fock:
 --------------------------
 Total SCF energy  =          -0.9964657398
 2-Electron energy =           0.1178042648

                WFN1 Final Natural orbital energies and occupations
                ---------------------------------------------------

              Alpha       Beta            Alpha       Beta  
            --------    --------        --------    --------
       1      0.0000      0.0000          1.0000      0.0000
       2      0.0000      0.0000          1.0000      0.0000
       3      0.0000      0.0000          0.0000      0.0000
       4      0.0000      0.0000          0.0000      0.0000

             WFN1 Final Correlation function energies and occupations
             --------------------------------------------------------

              Alpha       Beta            Alpha       Beta  
            --------    --------        --------    --------
       1      0.0000      0.0000          1.0000      0.0000
       2      0.0000      0.0000          1.0000      0.0000
       3      0.0000      0.0000          0.0000      0.0000
       4      0.0000      0.0000          0.0000      0.0000

                WFN1 Final alpha-alpha 2-matrix occupation numbers
                --------------------------------------------------


 global array: g_momo1[1:4,1:4],  handle: -990 

            1           2           3           4  
       ----------- ----------- ----------- -----------
   1       0.00000     1.00000     0.00000     0.00000
   2       1.00000    -0.00000     0.00000     0.00000
   3       0.00000     0.00000     0.00000     0.00000
   4       0.00000     0.00000     0.00000     0.00000

                 WFN1 Final beta-beta 2-matrix occupation numbers
                 ------------------------------------------------


 global array: g_momo2[1:4,1:4],  handle: -989 

            1           2           3           4  
       ----------- ----------- ----------- -----------
   1       0.00000     0.00000     0.00000     0.00000
   2       0.00000     0.00000     0.00000     0.00000
   3       0.00000     0.00000     0.00000     0.00000
   4       0.00000     0.00000     0.00000     0.00000

                  WFN1 Final alpha Correlation Function Analysis
                  ----------------------------------------------


 global array: Ca[1:4,1:4],  handle: -977 

                     1                       2                       3                       4  
       ----------------------- ----------------------- ----------------------- -----------------------
   1       0.73025,    0.24644     0.60498,    0.20000     0.00000,   -0.00000     0.00000,    0.00000
   2      -0.07346,    0.63293     0.08412,   -0.76611    -0.00000,    0.00000     0.00000,   -0.00000
   3       0.00000,    0.00000     0.00000,    0.00000    -0.68933,    0.06701    -0.71772,    0.07216
   4       0.00000,   -0.00000     0.00000,    0.00000    -0.20819,    0.69065     0.19770,   -0.66376

                   WFN1 Final beta Correlation Function Analysis
                   ---------------------------------------------


 global array: Cb[1:4,1:4],  handle: -976 

                     1                       2                       3                       4  
       ----------------------- ----------------------- ----------------------- -----------------------
   1       0.68731,    0.30334     0.59942,    0.27099     0.00429,    0.00140    -0.00732,   -0.05261
   2      -0.00420,    0.65899     0.01003,   -0.75079     0.01839,   -0.03064    -0.02505,   -0.00399
   3      -0.02652,    0.02332     0.01014,    0.02280    -0.72525,    0.06409    -0.68164,    0.05837
   4      -0.00249,   -0.00655    -0.03438,   -0.04075    -0.19059,    0.65748     0.20282,   -0.69812

                     WFN1 Final Alpha Natural Orbital Analysis
                     -----------------------------------------

 Vector    1  Occ=1.000000D+00  E= 0.000000D+00
              MO Center=  0.0D+00,  0.0D+00,  3.5D-02, r^2= 5.8D+00
   Bfn.  Coefficient  Atom+Function         Bfn.  Coefficient  Atom+Function  
  ----- ------------  ---------------      ----- ------------  ---------------
     4     -0.474506  2 H  s                  2     -0.467123  1 H  s          
     3     -0.303742  2 H  s                  1     -0.298983  1 H  s          

 Vector    2  Occ=1.000000D+00  E= 0.000000D+00
              MO Center=  0.0D+00,  0.0D+00, -3.5D-02, r^2= 5.9D+00
   Bfn.  Coefficient  Atom+Function         Bfn.  Coefficient  Atom+Function  
  ----- ------------  ---------------      ----- ------------  ---------------
     2     -0.473937  1 H  s                  4      0.466545  2 H  s          
     1     -0.305464  1 H  s                  3      0.300733  2 H  s          

 Vector    3  Occ=2.659192D-15  E= 0.000000D+00
              MO Center=  0.0D+00,  0.0D+00,  3.7D-03, r^2= 6.2D+00
   Bfn.  Coefficient  Atom+Function         Bfn.  Coefficient  Atom+Function  
  ----- ------------  ---------------      ----- ------------  ---------------
     1      0.887890  1 H  s                  3      0.889359  2 H  s          
     2     -0.809370  1 H  s                  4     -0.810716  2 H  s          

 Vector    4  Occ=1.689572D-14  E= 0.000000D+00
              MO Center=  0.0D+00,  0.0D+00, -3.7D-03, r^2= 6.3D+00
   Bfn.  Coefficient  Atom+Function         Bfn.  Coefficient  Atom+Function  
  ----- ------------  ---------------      ----- ------------  ---------------
     1     -0.890912  1 H  s                  3      0.889446  2 H  s          
     2      0.816640  1 H  s                  4     -0.815304  2 H  s          


                     WFN1 Final Beta Natural Orbital Analysis
                     ----------------------------------------

 Vector    1  Occ=0.000000D+00  E= 0.000000D+00
              MO Center=  0.0D+00,  0.0D+00,  6.0D-02, r^2= 5.9D+00
   Bfn.  Coefficient  Atom+Function         Bfn.  Coefficient  Atom+Function  
  ----- ------------  ---------------      ----- ------------  ---------------
     4     -0.578574  2 H  s                  2     -0.437194  1 H  s          
     1     -0.326567  1 H  s                  3     -0.187470  2 H  s          

 Vector    2  Occ=0.000000D+00  E= 0.000000D+00
              MO Center=  0.0D+00,  0.0D+00, -5.6D-02, r^2= 5.9D+00
   Bfn.  Coefficient  Atom+Function         Bfn.  Coefficient  Atom+Function  
  ----- ------------  ---------------      ----- ------------  ---------------
     2     -0.555785  1 H  s                  4      0.455705  2 H  s          
     3      0.308753  2 H  s                  1     -0.215742  1 H  s          

 Vector    3  Occ=0.000000D+00  E= 0.000000D+00
              MO Center=  0.0D+00,  0.0D+00,  9.6D-02, r^2= 6.1D+00
   Bfn.  Coefficient  Atom+Function         Bfn.  Coefficient  Atom+Function  
  ----- ------------  ---------------      ----- ------------  ---------------
     3      0.906643  2 H  s                  1      0.895863  1 H  s          
     4     -0.829024  2 H  s                  2     -0.738110  1 H  s          

 Vector    4  Occ=0.000000D+00  E= 0.000000D+00
              MO Center=  0.0D+00,  0.0D+00, -1.0D-01, r^2= 6.2D+00
   Bfn.  Coefficient  Atom+Function         Bfn.  Coefficient  Atom+Function  
  ----- ------------  ---------------      ----- ------------  ---------------
     1     -0.899451  1 H  s                  3      0.901275  2 H  s          
     2      0.848503  1 H  s                  4     -0.731508  2 H  s          


 Task  times  cpu:       14.6s     wall:       21.4s
 Summary of allocated global arrays
-----------------------------------
  No active global arrays



                         GA Statistics for process    0
                         ------------------------------

       create   destroy   get      put      acc     scatter   gather  read&inc
calls:   44       44     8.70e+06 3.00e+04 2.38e+04    0        0       11     
number of processes/call 1.00e+00 1.00e+00 1.00e+00 0.00e+00 0.00e+00
bytes total:             1.12e+09 5.32e+06 3.80e+06 0.00e+00 0.00e+00 8.80e+01
bytes remote:            0.00e+00 0.00e+00 0.00e+00 0.00e+00 0.00e+00 0.00e+00
Max memory consumed for GA by this process: 10624 bytes
MA_summarize_allocated_blocks: starting scan ...
MA_summarize_allocated_blocks: scan completed: 0 heap blocks, 0 stack blocks
MA usage statistics:

	allocation statistics:
					      heap	     stack
					      ----	     -----
	current number of blocks	         0	         0
	maximum number of blocks	        19	        17
	current total bytes		         0	         0
	maximum total bytes		   3204328	  22508616
	maximum total K-bytes		      3205	     22509
	maximum total M-bytes		         4	        23


                                NWChem Input Module
                                -------------------





                                     CITATION
                                     --------
                Please cite the following reference when publishing
                           results obtained with NWChem:

                 M. Valiev, E.J. Bylaska, N. Govind, K. Kowalski,
              T.P. Straatsma, H.J.J. van Dam, D. Wang, J. Nieplocha,
                        E. Apra, T.L. Windus, W.A. de Jong
                 "NWChem: a comprehensive and scalable open-source
                  solution for large scale molecular simulations"
                      Comput. Phys. Commun. 181, 1477 (2010)
                           doi:10.1016/j.cpc.2010.04.018

                                      AUTHORS
                                      -------
          E. Apra, E. J. Bylaska, W. A. de Jong, N. Govind, K. Kowalski,
       T. P. Straatsma, M. Valiev, H. J. J. van Dam, D. Wang, T. L. Windus,
        J. Hammond, J. Autschbach, K. Bhaskaran-Nair, J. Brabec, K. Lopata,
    S. A. Fischer, S. Krishnamoorthy, M. Jacquelin, W. Ma, M. Klemm, O. Villa,
      Y. Chen, V. Anisimov, F. Aquino, S. Hirata, M. T. Hackler, V. Konjkov,
      T. Risthaus, M. Malagoli, A. Marenich, A. Otero-de-la-Roza, J. Mullin,
        P. Nichols, R. Peverati, J. Pittner, Y. Zhao, P.-D. Fan, A. Fonari,
       M. Williamson, R. J. Harrison, J. R. Rehr, M. Dupuis, D. Silverstein,
    D. M. A. Smith, J. Nieplocha, V. Tipparaju, M. Krishnan, B. E. Van Kuiken,
        A. Vazquez-Mayagoitia, L. Jensen, M. Swart, Q. Wu, T. Van Voorhis,
     A. A. Auer, M. Nooijen, L. D. Crosby, E. Brown, G. Cisneros, G. I. Fann,
   H. Fruchtl, J. Garza, K. Hirao, R. A. Kendall, J. A. Nichols, K. Tsemekhman,
    K. Wolinski, J. Anchell, D. E. Bernholdt, P. Borowski, T. Clark, D. Clerc,
   H. Dachsel, M. J. O. Deegan, K. Dyall, D. Elwood, E. Glendening, M. Gutowski,
   A. C. Hess, J. Jaffe, B. G. Johnson, J. Ju, R. Kobayashi, R. Kutteh, Z. Lin,
   R. Littlefield, X. Long, B. Meng, T. Nakajima, S. Niu, L. Pollack, M. Rosing,
   K. Glaesemann, G. Sandrone, M. Stave, H. Taylor, G. Thomas, J. H. van Lenthe,
                               A. T. Wong, Z. Zhang.

 Total times  cpu:       14.6s     wall:       21.4s
