 argument  1 = input-wf.nw



============================== echo of input deck ==============================
echo
start wfn1_dat
geometry units au noautoz
  H 0 0 -2.89434600000000000000
  H 0 0  2.89434600000000000000
  symmetry cs
end
basis
  H library 6-31g
end
set wfn1:input_vectors "atomic"
set wfn1:solver "monte-carlo"
set wfn1:print_error F
set wfn1:t_initial 0.1
set wfn1:nopen 2
#set wfn1:corr_expr "wfn1_mx"
set wfn1:corr_expr "wfn1c"
set wfn1:t_bath 0.0
set wfn1:maxit  20000
task wfn1 energy
================================================================================


                                         
                                         


              Northwest Computational Chemistry Package (NWChem) 6.8
              ------------------------------------------------------


                    Environmental Molecular Sciences Laboratory
                       Pacific Northwest National Laboratory
                                Richland, WA 99352

                              Copyright (c) 1994-2015
                       Pacific Northwest National Laboratory
                            Battelle Memorial Institute

             NWChem is an open-source computational chemistry package
                        distributed under the terms of the
                      Educational Community License (ECL) 2.0
             A copy of the license is included with this distribution
                              in the LICENSE.TXT file

                                  ACKNOWLEDGMENT
                                  --------------

            This software and its documentation were developed at the
            EMSL at Pacific Northwest National Laboratory, a multiprogram
            national laboratory, operated for the U.S. Department of Energy
            by Battelle under Contract Number DE-AC05-76RL01830. Support
            for this work was provided by the Department of Energy Office
            of Biological and Environmental Research, Office of Basic
            Energy Sciences, and the Office of Advanced Scientific Computing.


           Job information
           ---------------

    hostname        = erato
    program         = ../../../bin/LINUX64/nwchem
    date            = Sat Mar  6 01:33:56 2021

    compiled        = Sat_Mar_06_01:07:04_2021
    source          = /home/hvandam/nwchem-1-wfn1
    nwchem branch   = Development
    nwchem revision = nwchem_on_git-124-gad72d19fff205e319ffbbf2bca37a04ded6ad57b
    ga revision     = nwchem_on_git-124-gad72d19
    use scalapack   = F
    input           = input-wf.nw
    prefix          = wfn1_dat.
    data base       = ./wfn1_dat.db
    status          = startup
    nproc           =        1
    time left       =     -1s



           Memory information
           ------------------

    heap     =   13107198 doubles =    100.0 Mbytes
    stack    =   13107195 doubles =    100.0 Mbytes
    global   =   26214400 doubles =    200.0 Mbytes (distinct from heap & stack)
    total    =   52428793 doubles =    400.0 Mbytes
    verify   = yes
    hardfail = no 


           Directory information
           ---------------------

  0 permanent = .
  0 scratch   = .




                                NWChem Input Module
                                -------------------


 Turning off AUTOSYM since
 SYMMETRY directive was detected!



                             Geometry "geometry" -> ""
                             -------------------------

 Output coordinates in a.u. (scale by  1.000000000 to convert to a.u.)

  No.       Tag          Charge          X              Y              Z
 ---- ---------------- ---------- -------------- -------------- --------------
    1 H                    1.0000     0.00000000     0.00000000    -2.89434600
    2 H                    1.0000     0.00000000     0.00000000     2.89434600

      Atomic Mass 
      ----------- 

      H                  1.007825


 Effective nuclear repulsion energy (a.u.)       0.1727505972

            Nuclear Dipole moment (a.u.) 
            ----------------------------
        X                 Y               Z
 ---------------- ---------------- ----------------
     0.0000000000     0.0000000000     0.0000000000

      Symmetry information
      --------------------

 Group name             Cs        
 Group number              2
 Group order               2
 No. of unique centers     1

      Symmetry unique atoms

     1


            XYZ format geometry
            -------------------
     2
 geometry
 H                     0.00000000     0.00000000    -1.53162205
 H                     0.00000000     0.00000000     1.53162205

                      Basis "ao basis" -> "" (cartesian)
                      -----
  H (Hydrogen)
  ------------
            Exponent  Coefficients 
       -------------- ---------------------------------------------------------
  1 S  1.87311370E+01  0.033495
  1 S  2.82539370E+00  0.234727
  1 S  6.40121700E-01  0.813757

  2 S  1.61277800E-01  1.000000



 Summary of "ao basis" -> "" (cartesian)
 ------------------------------------------------------------------------------
       Tag                 Description            Shells   Functions and Types
 ---------------- ------------------------------  ------  ---------------------
 H                           6-31g                   2        2   2s



                                NWChem WFN1 Module
                                ------------------



          No. of electrons :     2
           Alpha electrons :     2
            Beta electrons :     0
          Charge           :     0
          Spin multiplicity:     3

 HvD: wfn1_inpdft
 HvD: nquad_task =                     1
 HvD: iangquad   =                     0
 HvD: gridtype   = user      
 HvD: leb        =  T
 HvD: radgrid    = murakn    
 HvD: trunc_neigh=  T
 HvD: lssw       =  T
 HvD: whichssw   = erf1    
 HvD: mxnrad     =                     0
 HvD: mxnang     =                     0
 HVD: wfn1: movecs_in  = atomic                                                                                                                                                                                                                                                          
 HVD: wfn1: movecs_out = ./wfn1_dat.movecs                                                                                                                                                                                                                                               

      Superposition of Atomic Density Guess
      -------------------------------------

 Sum of atomic energies:          -0.99646508

      Non-variational initial energy
      ------------------------------

 Total energy =      -0.682415
 1-e energy   =      -1.341967
 2-e energy   =       0.486801
 HOMO         =      -0.208027
 LUMO         =      -0.173696

 iteration              energy           error
 ---------              ------           -----
         0         -0.98435556        0.080000
         1         -0.98567335        0.080000
         2         -0.98594491        0.080000
         3         -0.98702614        0.080000
         4         -0.98793141        0.080000
         5         -0.98823666        0.080000
         6         -0.98944982        0.080000
         7         -0.99076090        0.080000
         8         -0.99137605        0.080000
         9         -0.99210515        0.080000
        10         -0.99316098        0.080000
        11         -0.99368030        0.080000
        12         -0.99374918        0.080000
        13         -0.99392989        0.080000
        14         -0.99409696        0.080000
        15         -0.99422088        0.080000
        16         -0.99480339        0.080000
        17         -0.99493113        0.080000
        18         -0.99515722        0.080000
        19         -0.99521551        0.080000
        20         -0.99524977        0.080000
        21         -0.99538826        0.080000
        22         -0.99551547        0.080000
        23         -0.99567887        0.080000
        24         -0.99577316        0.080000
        25         -0.99587050        0.074046
        26         -0.99589046        0.064708
        27         -0.99593074        0.064708
        28         -0.99596517        0.064708
        29         -0.99598225        0.055470
        30         -0.99602433        0.055470
        31         -0.99603790        0.041554
        32         -0.99604117        0.030536
        33         -0.99605590        0.026176
        34         -0.99605785        0.022439
        35         -0.99606210        0.019235
        36         -0.99606583        0.019235
        37         -0.99606773        0.013866
        38         -0.99607039        0.013866
        39         -0.99607246        0.012117
        40         -0.99607249        0.007487
        41         -0.99607250        0.006419
        42         -0.99607364        0.005502
        43         -0.99607366        0.004717
        44         -0.99607403        0.004717
        45         -0.99607420        0.004043
        46         -0.99607420        0.004043
        47         -0.99607430        0.004043
        48         -0.99607435        0.002498
        49         -0.99607445        0.002226
        50         -0.99607448        0.001604
        51         -0.99607450        0.001604
        52         -0.99607450        0.001604
        53         -0.99607451        0.001157
        54         -0.99607452        0.001030
        55         -0.99607454        0.001030
        56         -0.99607454        0.001030
        57         -0.99607455        0.001030
        58         -0.99607455        0.000743
        59         -0.99607455        0.000743
        60         -0.99607455        0.000743
        61         -0.99607456        0.000567
        62         -0.99607456        0.000567
        63         -0.99607457        0.000505
        64         -0.99607457        0.000505
        65         -0.99607457        0.000505
        66         -0.99607457        0.000505
        67         -0.99607457        0.000442
        68         -0.99607457        0.000442
        69         -0.99607457        0.000337
        70         -0.99607457        0.000337
        71         -0.99607458        0.000337
        72         -0.99607458        0.000295
        73         -0.99607458        0.000295
        74         -0.99607458        0.000295
        75         -0.99607458        0.000263
        76         -0.99607458        0.000234
        77         -0.99607458        0.000234
        78         -0.99607458        0.000234
        79         -0.99607458        0.000169
        80         -0.99607458        0.000126
        81         -0.99607458        0.000126
        82         -0.99607458        0.000126
        83         -0.99607458        0.000126
        84         -0.99607458        0.000126
        85         -0.99607458        0.000126
        86         -0.99607458        0.000108
        87         -0.99607458        0.000086
        88         -0.99607458        0.000086
        89         -0.99607458        0.000086
        90         -0.99607458        0.000074
        91         -0.99607458        0.000074
        92         -0.99607458        0.000046
        93         -0.99607458        0.000041
        94         -0.99607458        0.000041
        95         -0.99607458        0.000035
        96         -0.99607458        0.000035
        97         -0.99607458        0.000030
        98         -0.99607458        0.000027
        99         -0.99607458        0.000023
       100         -0.99607458        0.000023
       101         -0.99607458        0.000016
       102         -0.99607458        0.000016
       103         -0.99607458        0.000016
       104         -0.99607458        0.000014
       105         -0.99607458        0.000014
       106         -0.99607458        0.000013
       107         -0.99607458        0.000009
       108         -0.99607458        0.000006
       109         -0.99607458        0.000005
       110         -0.99607458        0.000005
       111         -0.99607458        0.000005
       112         -0.99607458        0.000005
       113         -0.99607458        0.000005
       114         -0.99607458        0.000005
       115         -0.99607458        0.000005
       116         -0.99607458        0.000005
       117         -0.99607458        0.000005
       118         -0.99607458        0.000004
       119         -0.99607458        0.000004
       120         -0.99607458        0.000004
       121         -0.99607458        0.000004
       122         -0.99607458        0.000004
       123         -0.99607458        0.000003
       124         -0.99607458        0.000002
       125         -0.99607458        0.000002
       126         -0.99607458        0.000002
       127         -0.99607458        0.000002
       128         -0.99607458        0.000001
       129         -0.99607458        0.000001
       130         -0.99607458        0.000001
       131         -0.99607458        0.000001
       132         -0.99607458        0.000001
       133         -0.99607458        0.000001
       134         -0.99607458        0.000001
       135         -0.99607458        0.000001
       136         -0.99607458        0.000001
       137         -0.99607458        0.000001
       138         -0.99607458        0.000001

 Reached Convergence

 WFN1                     :
 --------------------------
 Total WFN1 energy  =          -0.9960745808
 1-Electron energy  =          -1.3412344362
 2-Electron energy  =           0.1724092582
 Correlation energy =           0.0000000000
 DFT XC energy      =           0.0000000000
 Entropy energy     =           0.0000000000
 Nuclear energy     =           0.1727505972

 conventional Hartree-Fock:
 --------------------------
 Total SCF energy  =          -0.9960745808
 2-Electron energy =           0.1724092582

                WFN1 Final Natural orbital energies and occupations
                ---------------------------------------------------

              Alpha       Beta            Alpha       Beta  
            --------    --------        --------    --------
       1      0.0000      0.0000          1.0000      0.0000
       2      0.0000      0.0000          1.0000      0.0000
       3      0.0000      0.0000          0.0000      0.0000
       4      0.0000      0.0000          0.0000      0.0000

             WFN1 Final Correlation function energies and occupations
             --------------------------------------------------------

              Alpha       Beta            Alpha       Beta  
            --------    --------        --------    --------
       1      0.0000      0.0000          1.0000      0.0000
       2      0.0000      0.0000          1.0000      0.0000
       3      0.0000      0.0000          0.0000      0.0000
       4      0.0000      0.0000          0.0000      0.0000

                WFN1 Final alpha-alpha 2-matrix occupation numbers
                --------------------------------------------------


 global array: g_momo1[1:4,1:4],  handle: -990 

            1           2           3           4  
       ----------- ----------- ----------- -----------
   1       0.00000     1.00000     0.00000     0.00000
   2       1.00000     0.00000     0.00000     0.00000
   3       0.00000     0.00000    -0.00000     0.00000
   4       0.00000     0.00000     0.00000    -0.00000

                 WFN1 Final beta-beta 2-matrix occupation numbers
                 ------------------------------------------------


 global array: g_momo2[1:4,1:4],  handle: -989 

            1           2           3           4  
       ----------- ----------- ----------- -----------
   1       0.00000     0.00000     0.00000     0.00000
   2       0.00000     0.00000     0.00000     0.00000
   3       0.00000     0.00000     0.00000     0.00000
   4       0.00000     0.00000     0.00000     0.00000

                  WFN1 Final alpha Correlation Function Analysis
                  ----------------------------------------------


 global array: Ca[1:4,1:4],  handle: -981 

                     1                       2                       3                       4  
       ----------------------- ----------------------- ----------------------- -----------------------
   1       0.54783,    0.56206     0.43389,    0.44238     0.00000,   -0.00000    -0.00000,    0.00000
   2      -0.30492,   -0.53944     0.38836,    0.68206    -0.00000,    0.00000    -0.00000,   -0.00000
   3       0.00000,    0.00000    -0.00000,    0.00000    -0.85356,    0.16498     0.48731,   -0.08217
   4       0.00000,    0.00000     0.00000,   -0.00000    -0.32586,   -0.37153    -0.55748,   -0.66708

                   WFN1 Final beta Correlation Function Analysis
                   ---------------------------------------------


 global array: Cb[1:4,1:4],  handle: -980 

                     1                       2                       3                       4  
       ----------------------- ----------------------- ----------------------- -----------------------
   1       0.53891,    0.55758     0.43742,    0.44708     0.03378,   -0.07482    -0.02671,   -0.00450
   2      -0.31070,   -0.54633     0.38598,    0.67470    -0.00928,   -0.01834    -0.01941,   -0.00095
   3       0.00687,    0.04986    -0.00610,    0.05573    -0.81410,    0.16363     0.54204,   -0.10482
   4      -0.03276,    0.00854    -0.03000,   -0.02347    -0.35541,   -0.42071    -0.52947,   -0.64324

                     WFN1 Final Alpha Natural Orbital Analysis
                     -----------------------------------------

 Vector    1  Occ=1.000000D+00  E= 0.000000D+00
              MO Center=  0.0D+00,  0.0D+00, -1.1D-01, r^2= 3.1D+00
   Bfn.  Coefficient  Atom+Function         Bfn.  Coefficient  Atom+Function  
  ----- ------------  ---------------      ----- ------------  ---------------
     2     -0.480470  1 H  s                  4     -0.445482  2 H  s          
     1     -0.307560  1 H  s                  3     -0.284947  2 H  s          

 Vector    2  Occ=1.000000D+00  E= 0.000000D+00
              MO Center=  0.0D+00,  0.0D+00,  1.1D-01, r^2= 3.2D+00
   Bfn.  Coefficient  Atom+Function         Bfn.  Coefficient  Atom+Function  
  ----- ------------  ---------------      ----- ------------  ---------------
     4     -0.494365  2 H  s                  2      0.460434  1 H  s          
     3     -0.319401  2 H  s                  1      0.297689  1 H  s          

 Vector    3  Occ=6.130095D-15  E= 0.000000D+00
              MO Center=  0.0D+00,  0.0D+00, -1.3D-02, r^2= 3.4D+00
   Bfn.  Coefficient  Atom+Function         Bfn.  Coefficient  Atom+Function  
  ----- ------------  ---------------      ----- ------------  ---------------
     1      0.880645  1 H  s                  3      0.872920  2 H  s          
     2     -0.770625  1 H  s                  4     -0.763224  2 H  s          

 Vector    4  Occ=1.044593D-14  E= 0.000000D+00
              MO Center=  0.0D+00,  0.0D+00,  1.3D-02, r^2= 3.8D+00
   Bfn.  Coefficient  Atom+Function         Bfn.  Coefficient  Atom+Function  
  ----- ------------  ---------------      ----- ------------  ---------------
     3      0.908544  2 H  s                  1     -0.901059  1 H  s          
     4     -0.870145  2 H  s                  2      0.863598  1 H  s          


                     WFN1 Final Beta Natural Orbital Analysis
                     ----------------------------------------

 Vector    1  Occ=0.000000D+00  E= 0.000000D+00
              MO Center=  0.0D+00,  0.0D+00, -2.9D-02, r^2= 3.2D+00
   Bfn.  Coefficient  Atom+Function         Bfn.  Coefficient  Atom+Function  
  ----- ------------  ---------------      ----- ------------  ---------------
     2     -0.561466  1 H  s                  4     -0.499280  2 H  s          
     3     -0.244445  2 H  s                  1     -0.187388  1 H  s          

 Vector    2  Occ=0.000000D+00  E= 0.000000D+00
              MO Center=  0.0D+00,  0.0D+00,  1.6D-02, r^2= 3.4D+00
   Bfn.  Coefficient  Atom+Function         Bfn.  Coefficient  Atom+Function  
  ----- ------------  ---------------      ----- ------------  ---------------
     4     -0.587730  2 H  s                  2      0.507947  1 H  s          
     1      0.274770  1 H  s                  3     -0.188676  2 H  s          

 Vector    3  Occ=0.000000D+00  E= 0.000000D+00
              MO Center=  0.0D+00,  0.0D+00,  6.2D-02, r^2= 3.2D+00
   Bfn.  Coefficient  Atom+Function         Bfn.  Coefficient  Atom+Function  
  ----- ------------  ---------------      ----- ------------  ---------------
     3      0.926710  2 H  s                  1      0.870668  1 H  s          
     2     -0.733627  1 H  s                  4     -0.708471  2 H  s          

 Vector    4  Occ=0.000000D+00  E= 0.000000D+00
              MO Center=  0.0D+00,  0.0D+00, -4.9D-02, r^2= 3.7D+00
   Bfn.  Coefficient  Atom+Function         Bfn.  Coefficient  Atom+Function  
  ----- ------------  ---------------      ----- ------------  ---------------
     1     -0.949726  1 H  s                  3      0.903610  2 H  s          
     4     -0.828177  2 H  s                  2      0.819178  1 H  s          


 Task  times  cpu:       13.7s     wall:       20.5s
 Summary of allocated global arrays
-----------------------------------
  No active global arrays



                         GA Statistics for process    0
                         ------------------------------

       create   destroy   get      put      acc     scatter   gather  read&inc
calls:   44       44     7.82e+06 2.71e+04 2.14e+04    0        0       11     
number of processes/call 1.00e+00 1.00e+00 1.00e+00 0.00e+00 0.00e+00
bytes total:             1.01e+09 4.78e+06 3.42e+06 0.00e+00 0.00e+00 8.80e+01
bytes remote:            0.00e+00 0.00e+00 0.00e+00 0.00e+00 0.00e+00 0.00e+00
Max memory consumed for GA by this process: 10624 bytes
MA_summarize_allocated_blocks: starting scan ...
MA_summarize_allocated_blocks: scan completed: 0 heap blocks, 0 stack blocks
MA usage statistics:

	allocation statistics:
					      heap	     stack
					      ----	     -----
	current number of blocks	         0	         0
	maximum number of blocks	        19	        17
	current total bytes		         0	         0
	maximum total bytes		   3204344	  22508664
	maximum total K-bytes		      3205	     22509
	maximum total M-bytes		         4	        23


                                NWChem Input Module
                                -------------------





                                     CITATION
                                     --------
                Please cite the following reference when publishing
                           results obtained with NWChem:

                 M. Valiev, E.J. Bylaska, N. Govind, K. Kowalski,
              T.P. Straatsma, H.J.J. van Dam, D. Wang, J. Nieplocha,
                        E. Apra, T.L. Windus, W.A. de Jong
                 "NWChem: a comprehensive and scalable open-source
                  solution for large scale molecular simulations"
                      Comput. Phys. Commun. 181, 1477 (2010)
                           doi:10.1016/j.cpc.2010.04.018

                                      AUTHORS
                                      -------
          E. Apra, E. J. Bylaska, W. A. de Jong, N. Govind, K. Kowalski,
       T. P. Straatsma, M. Valiev, H. J. J. van Dam, D. Wang, T. L. Windus,
        J. Hammond, J. Autschbach, K. Bhaskaran-Nair, J. Brabec, K. Lopata,
    S. A. Fischer, S. Krishnamoorthy, M. Jacquelin, W. Ma, M. Klemm, O. Villa,
      Y. Chen, V. Anisimov, F. Aquino, S. Hirata, M. T. Hackler, V. Konjkov,
      T. Risthaus, M. Malagoli, A. Marenich, A. Otero-de-la-Roza, J. Mullin,
        P. Nichols, R. Peverati, J. Pittner, Y. Zhao, P.-D. Fan, A. Fonari,
       M. Williamson, R. J. Harrison, J. R. Rehr, M. Dupuis, D. Silverstein,
    D. M. A. Smith, J. Nieplocha, V. Tipparaju, M. Krishnan, B. E. Van Kuiken,
        A. Vazquez-Mayagoitia, L. Jensen, M. Swart, Q. Wu, T. Van Voorhis,
     A. A. Auer, M. Nooijen, L. D. Crosby, E. Brown, G. Cisneros, G. I. Fann,
   H. Fruchtl, J. Garza, K. Hirao, R. A. Kendall, J. A. Nichols, K. Tsemekhman,
    K. Wolinski, J. Anchell, D. E. Bernholdt, P. Borowski, T. Clark, D. Clerc,
   H. Dachsel, M. J. O. Deegan, K. Dyall, D. Elwood, E. Glendening, M. Gutowski,
   A. C. Hess, J. Jaffe, B. G. Johnson, J. Ju, R. Kobayashi, R. Kutteh, Z. Lin,
   R. Littlefield, X. Long, B. Meng, T. Nakajima, S. Niu, L. Pollack, M. Rosing,
   K. Glaesemann, G. Sandrone, M. Stave, H. Taylor, G. Thomas, J. H. van Lenthe,
                               A. T. Wong, Z. Zhang.

 Total times  cpu:       13.7s     wall:       20.5s
