 argument  1 = input-wf.nw



============================== echo of input deck ==============================
echo
start wfn1_dat
geometry units au noautoz
  H 0 0 -3.69434600000000000000
  H 0 0  3.69434600000000000000
  symmetry cs
end
basis
  H library 6-31g
end
set wfn1:input_vectors "atomic"
set wfn1:solver "monte-carlo"
set wfn1:print_error F
set wfn1:t_initial 0.1
set wfn1:nopen 2
#set wfn1:corr_expr "wfn1_mx"
set wfn1:corr_expr "wfn1c"
set wfn1:t_bath 0.0
set wfn1:maxit  20000
task wfn1 energy
================================================================================


                                         
                                         


              Northwest Computational Chemistry Package (NWChem) 6.8
              ------------------------------------------------------


                    Environmental Molecular Sciences Laboratory
                       Pacific Northwest National Laboratory
                                Richland, WA 99352

                              Copyright (c) 1994-2015
                       Pacific Northwest National Laboratory
                            Battelle Memorial Institute

             NWChem is an open-source computational chemistry package
                        distributed under the terms of the
                      Educational Community License (ECL) 2.0
             A copy of the license is included with this distribution
                              in the LICENSE.TXT file

                                  ACKNOWLEDGMENT
                                  --------------

            This software and its documentation were developed at the
            EMSL at Pacific Northwest National Laboratory, a multiprogram
            national laboratory, operated for the U.S. Department of Energy
            by Battelle under Contract Number DE-AC05-76RL01830. Support
            for this work was provided by the Department of Energy Office
            of Biological and Environmental Research, Office of Basic
            Energy Sciences, and the Office of Advanced Scientific Computing.


           Job information
           ---------------

    hostname        = erato
    program         = ../../../bin/LINUX64/nwchem
    date            = Sat Mar  6 01:39:28 2021

    compiled        = Sat_Mar_06_01:07:04_2021
    source          = /home/hvandam/nwchem-1-wfn1
    nwchem branch   = Development
    nwchem revision = nwchem_on_git-124-gad72d19fff205e319ffbbf2bca37a04ded6ad57b
    ga revision     = nwchem_on_git-124-gad72d19
    use scalapack   = F
    input           = input-wf.nw
    prefix          = wfn1_dat.
    data base       = ./wfn1_dat.db
    status          = startup
    nproc           =        1
    time left       =     -1s



           Memory information
           ------------------

    heap     =   13107196 doubles =    100.0 Mbytes
    stack    =   13107201 doubles =    100.0 Mbytes
    global   =   26214400 doubles =    200.0 Mbytes (distinct from heap & stack)
    total    =   52428797 doubles =    400.0 Mbytes
    verify   = yes
    hardfail = no 


           Directory information
           ---------------------

  0 permanent = .
  0 scratch   = .




                                NWChem Input Module
                                -------------------


 Turning off AUTOSYM since
 SYMMETRY directive was detected!



                             Geometry "geometry" -> ""
                             -------------------------

 Output coordinates in a.u. (scale by  1.000000000 to convert to a.u.)

  No.       Tag          Charge          X              Y              Z
 ---- ---------------- ---------- -------------- -------------- --------------
    1 H                    1.0000     0.00000000     0.00000000    -3.69434600
    2 H                    1.0000     0.00000000     0.00000000     3.69434600

      Atomic Mass 
      ----------- 

      H                  1.007825


 Effective nuclear repulsion energy (a.u.)       0.1353419523

            Nuclear Dipole moment (a.u.) 
            ----------------------------
        X                 Y               Z
 ---------------- ---------------- ----------------
     0.0000000000     0.0000000000     0.0000000000

      Symmetry information
      --------------------

 Group name             Cs        
 Group number              2
 Group order               2
 No. of unique centers     1

      Symmetry unique atoms

     1


            XYZ format geometry
            -------------------
     2
 geometry
 H                     0.00000000     0.00000000    -1.95496385
 H                     0.00000000     0.00000000     1.95496385

                      Basis "ao basis" -> "" (cartesian)
                      -----
  H (Hydrogen)
  ------------
            Exponent  Coefficients 
       -------------- ---------------------------------------------------------
  1 S  1.87311370E+01  0.033495
  1 S  2.82539370E+00  0.234727
  1 S  6.40121700E-01  0.813757

  2 S  1.61277800E-01  1.000000



 Summary of "ao basis" -> "" (cartesian)
 ------------------------------------------------------------------------------
       Tag                 Description            Shells   Functions and Types
 ---------------- ------------------------------  ------  ---------------------
 H                           6-31g                   2        2   2s



                                NWChem WFN1 Module
                                ------------------



          No. of electrons :     2
           Alpha electrons :     2
            Beta electrons :     0
          Charge           :     0
          Spin multiplicity:     3

 HvD: wfn1_inpdft
 HvD: nquad_task =                     1
 HvD: iangquad   =                     0
 HvD: gridtype   = user      
 HvD: leb        =  T
 HvD: radgrid    = murakn    
 HvD: trunc_neigh=  T
 HvD: lssw       =  T
 HvD: whichssw   = erf1    
 HvD: mxnrad     =                     0
 HvD: mxnang     =                     0
 HVD: wfn1: movecs_in  = atomic                                                                                                                                                                                                                                                          
 HVD: wfn1: movecs_out = ./wfn1_dat.movecs                                                                                                                                                                                                                                               

      Superposition of Atomic Density Guess
      -------------------------------------

 Sum of atomic energies:          -0.99646508

      Non-variational initial energy
      ------------------------------

 Total energy =      -0.682118
 1-e energy   =      -1.267150
 2-e energy   =       0.449690
 HOMO         =      -0.195267
 LUMO         =      -0.187087

 iteration              energy           error
 ---------              ------           -----
         0         -0.98468756        0.080000
         1         -0.98604205        0.080000
         2         -0.98671092        0.080000
         3         -0.98771361        0.080000
         4         -0.98791155        0.080000
         5         -0.98818216        0.080000
         6         -0.98855588        0.080000
         7         -0.98900917        0.080000
         8         -0.99104932        0.080000
         9         -0.99118683        0.080000
        10         -0.99224895        0.080000
        11         -0.99235371        0.080000
        12         -0.99288926        0.080000
        13         -0.99436260        0.080000
        14         -0.99452709        0.080000
        15         -0.99469427        0.080000
        16         -0.99567291        0.080000
        17         -0.99579936        0.080000
        18         -0.99617040        0.080000
        19         -0.99618953        0.080000
        20         -0.99621740        0.080000
        21         -0.99623427        0.080000
        22         -0.99624806        0.080000
        23         -0.99626422        0.080000
        24         -0.99628323        0.080000
        25         -0.99632270        0.058773
        26         -0.99632498        0.058773
        27         -0.99633258        0.045756
        28         -0.99634456        0.045756
        29         -0.99637326        0.045756
        30         -0.99637349        0.039985
        31         -0.99637833        0.035621
        32         -0.99640542        0.035621
        33         -0.99642279        0.030536
        34         -0.99642338        0.026685
        35         -0.99642463        0.022875
        36         -0.99642678        0.022875
        37         -0.99642878        0.019609
        38         -0.99642934        0.019609
        39         -0.99643542        0.019609
        40         -0.99643589        0.017136
        41         -0.99643999        0.017136
        42         -0.99644020        0.017136
        43         -0.99644189        0.012837
        44         -0.99644431        0.012837
        45         -0.99644591        0.011436
        46         -0.99644781        0.011436
        47         -0.99644872        0.011436
        48         -0.99644930        0.011436
        49         -0.99644944        0.011436
        50         -0.99645046        0.011436
        51         -0.99645256        0.008404
        52         -0.99645341        0.008404
        53         -0.99645352        0.007931
        54         -0.99645376        0.004121
        55         -0.99645419        0.004121
        56         -0.99645424        0.003533
        57         -0.99645433        0.003087
        58         -0.99645437        0.002647
        59         -0.99645445        0.002647
        60         -0.99645455        0.002647
        61         -0.99645458        0.002647
        62         -0.99645459        0.002647
        63         -0.99645469        0.001604
        64         -0.99645470        0.001485
        65         -0.99645471        0.001485
        66         -0.99645472        0.001485
        67         -0.99645473        0.000900
        68         -0.99645473        0.000900
        69         -0.99645473        0.000900
        70         -0.99645473        0.000567
        71         -0.99645473        0.000567
        72         -0.99645474        0.000567
        73         -0.99645474        0.000425
        74         -0.99645474        0.000425
        75         -0.99645474        0.000378
        76         -0.99645474        0.000378
        77         -0.99645474        0.000378
        78         -0.99645474        0.000378
        79         -0.99645475        0.000378
        80         -0.99645475        0.000234
        81         -0.99645475        0.000182
        82         -0.99645475        0.000182
        83         -0.99645475        0.000182
        84         -0.99645475        0.000156
        85         -0.99645475        0.000156
        86         -0.99645475        0.000156
        87         -0.99645475        0.000139
        88         -0.99645475        0.000139
        89         -0.99645475        0.000124
        90         -0.99645475        0.000108
        91         -0.99645475        0.000093
        92         -0.99645475        0.000093
        93         -0.99645475        0.000093
        94         -0.99645475        0.000080
        95         -0.99645475        0.000071
        96         -0.99645475        0.000071
        97         -0.99645475        0.000051
        98         -0.99645475        0.000045
        99         -0.99645475        0.000045
       100         -0.99645475        0.000045
       101         -0.99645475        0.000045
       102         -0.99645475        0.000027
       103         -0.99645475        0.000025
       104         -0.99645475        0.000025
       105         -0.99645475        0.000025
       106         -0.99645475        0.000013
       107         -0.99645475        0.000013
       108         -0.99645475        0.000011
       109         -0.99645475        0.000008
       110         -0.99645475        0.000008
       111         -0.99645475        0.000008
       112         -0.99645475        0.000006
       113         -0.99645475        0.000005
       114         -0.99645475        0.000003
       115         -0.99645475        0.000003
       116         -0.99645475        0.000003
       117         -0.99645475        0.000003
       118         -0.99645475        0.000003
       119         -0.99645475        0.000002
       120         -0.99645475        0.000002
       121         -0.99645475        0.000002
       122         -0.99645475        0.000002
       123         -0.99645475        0.000001
       124         -0.99645475        0.000001
       125         -0.99645475        0.000001
       126         -0.99645475        0.000001

 Reached Convergence

 WFN1                     :
 --------------------------
 Total WFN1 energy  =          -0.9964547487
 1-Electron energy  =          -1.2671366466
 2-Electron energy  =           0.1353399456
 Correlation energy =           0.0000000000
 DFT XC energy      =           0.0000000000
 Entropy energy     =           0.0000000000
 Nuclear energy     =           0.1353419523

 conventional Hartree-Fock:
 --------------------------
 Total SCF energy  =          -0.9964547487
 2-Electron energy =           0.1353399456

                WFN1 Final Natural orbital energies and occupations
                ---------------------------------------------------

              Alpha       Beta            Alpha       Beta  
            --------    --------        --------    --------
       1      0.0000      0.0000          1.0000      0.0000
       2      0.0000      0.0000          1.0000      0.0000
       3      0.0000      0.0000          0.0000      0.0000
       4      0.0000      0.0000          0.0000      0.0000

             WFN1 Final Correlation function energies and occupations
             --------------------------------------------------------

              Alpha       Beta            Alpha       Beta  
            --------    --------        --------    --------
       1      0.0000      0.0000          1.0000      0.0000
       2      0.0000      0.0000          1.0000      0.0000
       3      0.0000      0.0000          0.0000      0.0000
       4      0.0000      0.0000          0.0000      0.0000

                WFN1 Final alpha-alpha 2-matrix occupation numbers
                --------------------------------------------------


 global array: g_momo1[1:4,1:4],  handle: -990 

            1           2           3           4  
       ----------- ----------- ----------- -----------
   1       0.00000     1.00000     0.00000     0.00000
   2       1.00000     0.00000     0.00000     0.00000
   3       0.00000     0.00000     0.00000     0.00000
   4       0.00000     0.00000     0.00000     0.00000

                 WFN1 Final beta-beta 2-matrix occupation numbers
                 ------------------------------------------------


 global array: g_momo2[1:4,1:4],  handle: -989 

            1           2           3           4  
       ----------- ----------- ----------- -----------
   1       0.00000     0.00000     0.00000     0.00000
   2       0.00000     0.00000     0.00000     0.00000
   3       0.00000     0.00000     0.00000     0.00000
   4       0.00000     0.00000     0.00000     0.00000

                  WFN1 Final alpha Correlation Function Analysis
                  ----------------------------------------------


 global array: Ca[1:4,1:4],  handle: -981 

                     1                       2                       3                       4  
       ----------------------- ----------------------- ----------------------- -----------------------
   1       0.02309,    0.72658     0.02414,    0.68627     0.00000,   -0.00000    -0.00000,    0.00000
   2       0.39109,   -0.56444    -0.41198,    0.59893     0.00000,    0.00000     0.00000,    0.00000
   3       0.00000,    0.00000     0.00000,   -0.00000     0.79128,   -0.00294     0.61145,    0.00258
   4       0.00000,   -0.00000     0.00000,   -0.00000     0.30966,   -0.52724    -0.40614,    0.67910

                   WFN1 Final beta Correlation Function Analysis
                   ---------------------------------------------


 global array: Cb[1:4,1:4],  handle: -980 

                     1                       2                       3                       4  
       ----------------------- ----------------------- ----------------------- -----------------------
   1      -0.00524,    0.72986    -0.00656,    0.68141    -0.01147,    0.04117     0.03233,    0.00665
   2       0.36243,   -0.57577    -0.38814,    0.61892     0.01583,   -0.02945    -0.03103,    0.03679
   3      -0.02399,   -0.01224    -0.02727,   -0.00357     0.78188,   -0.00247     0.62222,    0.00358
   4      -0.00544,    0.06052     0.03108,   -0.01446     0.31620,   -0.53453    -0.40105,    0.66977

                     WFN1 Final Alpha Natural Orbital Analysis
                     -----------------------------------------

 Vector    1  Occ=1.000000D+00  E= 0.000000D+00
              MO Center=  0.0D+00,  0.0D+00,  5.0D-02, r^2= 4.6D+00
   Bfn.  Coefficient  Atom+Function         Bfn.  Coefficient  Atom+Function  
  ----- ------------  ---------------      ----- ------------  ---------------
     4     -0.476490  2 H  s                  2     -0.464472  1 H  s          
     3     -0.303788  2 H  s                  1     -0.296009  1 H  s          

 Vector    2  Occ=1.000000D+00  E= 0.000000D+00
              MO Center=  0.0D+00,  0.0D+00, -5.0D-02, r^2= 4.6D+00
   Bfn.  Coefficient  Atom+Function         Bfn.  Coefficient  Atom+Function  
  ----- ------------  ---------------      ----- ------------  ---------------
     2      0.476502  1 H  s                  4     -0.464484  2 H  s          
     1      0.308394  1 H  s                  3     -0.300733  2 H  s          

 Vector    3  Occ=1.386251D-14  E= 0.000000D+00
              MO Center=  0.0D+00,  0.0D+00, -2.3D-03, r^2= 5.0D+00
   Bfn.  Coefficient  Atom+Function         Bfn.  Coefficient  Atom+Function  
  ----- ------------  ---------------      ----- ------------  ---------------
     1     -0.886749  1 H  s                  3     -0.885700  2 H  s          
     2      0.802586  1 H  s                  4      0.801617  2 H  s          

 Vector    4  Occ=2.350282D-14  E= 0.000000D+00
              MO Center=  0.0D+00,  0.0D+00,  2.3D-03, r^2= 5.1D+00
   Bfn.  Coefficient  Atom+Function         Bfn.  Coefficient  Atom+Function  
  ----- ------------  ---------------      ----- ------------  ---------------
     1     -0.892186  1 H  s                  3      0.893227  2 H  s          
     2      0.823744  1 H  s                  4     -0.824687  2 H  s          


                     WFN1 Final Beta Natural Orbital Analysis
                     ----------------------------------------

 Vector    1  Occ=0.000000D+00  E= 0.000000D+00
              MO Center=  0.0D+00,  0.0D+00, -7.9D-02, r^2= 4.8D+00
   Bfn.  Coefficient  Atom+Function         Bfn.  Coefficient  Atom+Function  
  ----- ------------  ---------------      ----- ------------  ---------------
     2     -0.582235  1 H  s                  4     -0.550820  2 H  s          
     3     -0.188633  2 H  s                  1     -0.185967  1 H  s          

 Vector    2  Occ=0.000000D+00  E= 0.000000D+00
              MO Center=  0.0D+00,  0.0D+00,  8.1D-02, r^2= 4.8D+00
   Bfn.  Coefficient  Atom+Function         Bfn.  Coefficient  Atom+Function  
  ----- ------------  ---------------      ----- ------------  ---------------
     2      0.565328  1 H  s                  4     -0.553262  2 H  s          
     3     -0.228341  2 H  s                  1      0.177612  1 H  s          

 Vector    3  Occ=0.000000D+00  E= 0.000000D+00
              MO Center=  0.0D+00,  0.0D+00, -6.0D-02, r^2= 4.8D+00
   Bfn.  Coefficient  Atom+Function         Bfn.  Coefficient  Atom+Function  
  ----- ------------  ---------------      ----- ------------  ---------------
     1     -0.934519  1 H  s                  3     -0.897934  2 H  s          
     4      0.739219  2 H  s                  2      0.735319  1 H  s          

 Vector    4  Occ=0.000000D+00  E= 0.000000D+00
              MO Center=  0.0D+00,  0.0D+00,  5.8D-02, r^2= 4.9D+00
   Bfn.  Coefficient  Atom+Function         Bfn.  Coefficient  Atom+Function  
  ----- ------------  ---------------      ----- ------------  ---------------
     3      0.933294  2 H  s                  1     -0.908621  1 H  s          
     4     -0.780731  2 H  s                  2      0.752462  1 H  s          


 Task  times  cpu:       12.4s     wall:       16.8s
 Summary of allocated global arrays
-----------------------------------
  No active global arrays



                         GA Statistics for process    0
                         ------------------------------

       create   destroy   get      put      acc     scatter   gather  read&inc
calls:   44       44     7.63e+06 2.64e+04 2.09e+04    0        0       11     
number of processes/call 1.00e+00 1.00e+00 1.00e+00 0.00e+00 0.00e+00
bytes total:             9.80e+08 4.67e+06 3.33e+06 0.00e+00 0.00e+00 8.80e+01
bytes remote:            0.00e+00 0.00e+00 0.00e+00 0.00e+00 0.00e+00 0.00e+00
Max memory consumed for GA by this process: 10624 bytes
MA_summarize_allocated_blocks: starting scan ...
MA_summarize_allocated_blocks: scan completed: 0 heap blocks, 0 stack blocks
MA usage statistics:

	allocation statistics:
					      heap	     stack
					      ----	     -----
	current number of blocks	         0	         0
	maximum number of blocks	        19	        17
	current total bytes		         0	         0
	maximum total bytes		   3204360	  22508648
	maximum total K-bytes		      3205	     22509
	maximum total M-bytes		         4	        23


                                NWChem Input Module
                                -------------------





                                     CITATION
                                     --------
                Please cite the following reference when publishing
                           results obtained with NWChem:

                 M. Valiev, E.J. Bylaska, N. Govind, K. Kowalski,
              T.P. Straatsma, H.J.J. van Dam, D. Wang, J. Nieplocha,
                        E. Apra, T.L. Windus, W.A. de Jong
                 "NWChem: a comprehensive and scalable open-source
                  solution for large scale molecular simulations"
                      Comput. Phys. Commun. 181, 1477 (2010)
                           doi:10.1016/j.cpc.2010.04.018

                                      AUTHORS
                                      -------
          E. Apra, E. J. Bylaska, W. A. de Jong, N. Govind, K. Kowalski,
       T. P. Straatsma, M. Valiev, H. J. J. van Dam, D. Wang, T. L. Windus,
        J. Hammond, J. Autschbach, K. Bhaskaran-Nair, J. Brabec, K. Lopata,
    S. A. Fischer, S. Krishnamoorthy, M. Jacquelin, W. Ma, M. Klemm, O. Villa,
      Y. Chen, V. Anisimov, F. Aquino, S. Hirata, M. T. Hackler, V. Konjkov,
      T. Risthaus, M. Malagoli, A. Marenich, A. Otero-de-la-Roza, J. Mullin,
        P. Nichols, R. Peverati, J. Pittner, Y. Zhao, P.-D. Fan, A. Fonari,
       M. Williamson, R. J. Harrison, J. R. Rehr, M. Dupuis, D. Silverstein,
    D. M. A. Smith, J. Nieplocha, V. Tipparaju, M. Krishnan, B. E. Van Kuiken,
        A. Vazquez-Mayagoitia, L. Jensen, M. Swart, Q. Wu, T. Van Voorhis,
     A. A. Auer, M. Nooijen, L. D. Crosby, E. Brown, G. Cisneros, G. I. Fann,
   H. Fruchtl, J. Garza, K. Hirao, R. A. Kendall, J. A. Nichols, K. Tsemekhman,
    K. Wolinski, J. Anchell, D. E. Bernholdt, P. Borowski, T. Clark, D. Clerc,
   H. Dachsel, M. J. O. Deegan, K. Dyall, D. Elwood, E. Glendening, M. Gutowski,
   A. C. Hess, J. Jaffe, B. G. Johnson, J. Ju, R. Kobayashi, R. Kutteh, Z. Lin,
   R. Littlefield, X. Long, B. Meng, T. Nakajima, S. Niu, L. Pollack, M. Rosing,
   K. Glaesemann, G. Sandrone, M. Stave, H. Taylor, G. Thomas, J. H. van Lenthe,
                               A. T. Wong, Z. Zhang.

 Total times  cpu:       12.4s     wall:       16.8s
