 argument  1 = input-wf.nw



============================== echo of input deck ==============================
echo
start wfn1_dat
geometry units au noautoz
  H 0 0 -2.24434600000000000000
  H 0 0  2.24434600000000000000
  symmetry cs
end
basis
  H library 6-31g
end
set wfn1:input_vectors "atomic"
set wfn1:solver "monte-carlo"
set wfn1:print_error F
set wfn1:t_initial 0.1
set wfn1:nopen 2
#set wfn1:corr_expr "wfn1_mx"
set wfn1:corr_expr "wfn1c"
set wfn1:t_bath 0.0
set wfn1:maxit  20000
task wfn1 energy
================================================================================


                                         
                                         


              Northwest Computational Chemistry Package (NWChem) 6.8
              ------------------------------------------------------


                    Environmental Molecular Sciences Laboratory
                       Pacific Northwest National Laboratory
                                Richland, WA 99352

                              Copyright (c) 1994-2015
                       Pacific Northwest National Laboratory
                            Battelle Memorial Institute

             NWChem is an open-source computational chemistry package
                        distributed under the terms of the
                      Educational Community License (ECL) 2.0
             A copy of the license is included with this distribution
                              in the LICENSE.TXT file

                                  ACKNOWLEDGMENT
                                  --------------

            This software and its documentation were developed at the
            EMSL at Pacific Northwest National Laboratory, a multiprogram
            national laboratory, operated for the U.S. Department of Energy
            by Battelle under Contract Number DE-AC05-76RL01830. Support
            for this work was provided by the Department of Energy Office
            of Biological and Environmental Research, Office of Basic
            Energy Sciences, and the Office of Advanced Scientific Computing.


           Job information
           ---------------

    hostname        = erato
    program         = ../../../bin/LINUX64/nwchem
    date            = Sat Mar  6 01:29:02 2021

    compiled        = Sat_Mar_06_01:07:04_2021
    source          = /home/hvandam/nwchem-1-wfn1
    nwchem branch   = Development
    nwchem revision = nwchem_on_git-124-gad72d19fff205e319ffbbf2bca37a04ded6ad57b
    ga revision     = nwchem_on_git-124-gad72d19
    use scalapack   = F
    input           = input-wf.nw
    prefix          = wfn1_dat.
    data base       = ./wfn1_dat.db
    status          = startup
    nproc           =        1
    time left       =     -1s



           Memory information
           ------------------

    heap     =   13107196 doubles =    100.0 Mbytes
    stack    =   13107201 doubles =    100.0 Mbytes
    global   =   26214400 doubles =    200.0 Mbytes (distinct from heap & stack)
    total    =   52428797 doubles =    400.0 Mbytes
    verify   = yes
    hardfail = no 


           Directory information
           ---------------------

  0 permanent = .
  0 scratch   = .




                                NWChem Input Module
                                -------------------


 Turning off AUTOSYM since
 SYMMETRY directive was detected!



                             Geometry "geometry" -> ""
                             -------------------------

 Output coordinates in a.u. (scale by  1.000000000 to convert to a.u.)

  No.       Tag          Charge          X              Y              Z
 ---- ---------------- ---------- -------------- -------------- --------------
    1 H                    1.0000     0.00000000     0.00000000    -2.24434600
    2 H                    1.0000     0.00000000     0.00000000     2.24434600

      Atomic Mass 
      ----------- 

      H                  1.007825


 Effective nuclear repulsion energy (a.u.)       0.2227820488

            Nuclear Dipole moment (a.u.) 
            ----------------------------
        X                 Y               Z
 ---------------- ---------------- ----------------
     0.0000000000     0.0000000000     0.0000000000

      Symmetry information
      --------------------

 Group name             Cs        
 Group number              2
 Group order               2
 No. of unique centers     1

      Symmetry unique atoms

     1


            XYZ format geometry
            -------------------
     2
 geometry
 H                     0.00000000     0.00000000    -1.18765684
 H                     0.00000000     0.00000000     1.18765684

                      Basis "ao basis" -> "" (cartesian)
                      -----
  H (Hydrogen)
  ------------
            Exponent  Coefficients 
       -------------- ---------------------------------------------------------
  1 S  1.87311370E+01  0.033495
  1 S  2.82539370E+00  0.234727
  1 S  6.40121700E-01  0.813757

  2 S  1.61277800E-01  1.000000



 Summary of "ao basis" -> "" (cartesian)
 ------------------------------------------------------------------------------
       Tag                 Description            Shells   Functions and Types
 ---------------- ------------------------------  ------  ---------------------
 H                           6-31g                   2        2   2s



                                NWChem WFN1 Module
                                ------------------



          No. of electrons :     2
           Alpha electrons :     2
            Beta electrons :     0
          Charge           :     0
          Spin multiplicity:     3

 HvD: wfn1_inpdft
 HvD: nquad_task =                     1
 HvD: iangquad   =                     0
 HvD: gridtype   = user      
 HvD: leb        =  T
 HvD: radgrid    = murakn    
 HvD: trunc_neigh=  T
 HvD: lssw       =  T
 HvD: whichssw   = erf1    
 HvD: mxnrad     =                     0
 HvD: mxnang     =                     0
 HVD: wfn1: movecs_in  = atomic                                                                                                                                                                                                                                                          
 HVD: wfn1: movecs_out = ./wfn1_dat.movecs                                                                                                                                                                                                                                               

      Superposition of Atomic Density Guess
      -------------------------------------

 Sum of atomic energies:          -0.99646508

      Non-variational initial energy
      ------------------------------

 Total energy =      -0.685748
 1-e energy   =      -1.441968
 2-e energy   =       0.533438
 HOMO         =      -0.236870
 LUMO         =      -0.141349

 iteration              energy           error
 ---------              ------           -----
         0         -0.98137981        0.080000
         1         -0.98288317        0.080000
         2         -0.98303707        0.080000
         3         -0.98451745        0.080000
         4         -0.98588253        0.080000
         5         -0.98642734        0.080000
         6         -0.98738230        0.080000
         7         -0.98783099        0.080000
         8         -0.98874472        0.080000
         9         -0.98888979        0.080000
        10         -0.98897455        0.080000
        11         -0.98998561        0.080000
        12         -0.99049326        0.080000
        13         -0.99073881        0.080000
        14         -0.99105456        0.080000
        15         -0.99144582        0.080000
        16         -0.99181045        0.080000
        17         -0.99186171        0.080000
        18         -0.99188545        0.080000
        19         -0.99208580        0.080000
        20         -0.99237095        0.080000
        21         -0.99239577        0.080000
        22         -0.99248235        0.080000
        23         -0.99266041        0.080000
        24         -0.99266067        0.080000
        25         -0.99271938        0.080000
        26         -0.99273848        0.063475
        27         -0.99281839        0.063475
        28         -0.99282764        0.063475
        29         -0.99283847        0.055470
        30         -0.99293711        0.055470
        31         -0.99294225        0.041554
        32         -0.99297946        0.036313
        33         -0.99298046        0.031129
        34         -0.99298832        0.026685
        35         -0.99298855        0.019235
        36         -0.99299347        0.019235
        37         -0.99299551        0.016489
        38         -0.99299632        0.016489
        39         -0.99299834        0.016489
        40         -0.99299969        0.016489
        41         -0.99300080        0.016489
        42         -0.99300199        0.014410
        43         -0.99300452        0.014410
        44         -0.99300722        0.014410
        45         -0.99300742        0.009433
        46         -0.99300809        0.009433
        47         -0.99300839        0.004997
        48         -0.99300843        0.004997
        49         -0.99300858        0.004367
        50         -0.99300880        0.003209
        51         -0.99300880        0.003209
        52         -0.99300888        0.003209
        53         -0.99300905        0.002751
        54         -0.99300914        0.002751
        55         -0.99300920        0.002751
        56         -0.99300932        0.002451
        57         -0.99300932        0.002183
        58         -0.99300935        0.001871
        59         -0.99300935        0.001604
        60         -0.99300935        0.001604
        61         -0.99300936        0.001156
        62         -0.99300937        0.001156
        63         -0.99300939        0.001156
        64         -0.99300939        0.001011
        65         -0.99300940        0.000900
        66         -0.99300941        0.000772
        67         -0.99300942        0.000662
        68         -0.99300942        0.000567
        69         -0.99300942        0.000567
        70         -0.99300943        0.000567
        71         -0.99300943        0.000486
        72         -0.99300943        0.000486
        73         -0.99300943        0.000364
        74         -0.99300943        0.000364
        75         -0.99300943        0.000318
        76         -0.99300943        0.000318
        77         -0.99300944        0.000318
        78         -0.99300944        0.000278
        79         -0.99300944        0.000208
        80         -0.99300944        0.000150
        81         -0.99300944        0.000108
        82         -0.99300944        0.000093
        83         -0.99300944        0.000093
        84         -0.99300944        0.000093
        85         -0.99300944        0.000080
        86         -0.99300944        0.000060
        87         -0.99300944        0.000051
        88         -0.99300944        0.000031
        89         -0.99300944        0.000031
        90         -0.99300944        0.000031
        91         -0.99300944        0.000022
        92         -0.99300944        0.000022
        93         -0.99300944        0.000014
        94         -0.99300944        0.000012
        95         -0.99300944        0.000012
        96         -0.99300944        0.000012
        97         -0.99300944        0.000012
        98         -0.99300944        0.000011
        99         -0.99300944        0.000010
       100         -0.99300944        0.000007
       101         -0.99300944        0.000007
       102         -0.99300944        0.000007
       103         -0.99300944        0.000007
       104         -0.99300944        0.000006
       105         -0.99300944        0.000006
       106         -0.99300944        0.000005
       107         -0.99300944        0.000005
       108         -0.99300944        0.000005
       109         -0.99300944        0.000005
       110         -0.99300944        0.000003
       111         -0.99300944        0.000003
       112         -0.99300944        0.000002
       113         -0.99300944        0.000002
       114         -0.99300944        0.000002
       115         -0.99300944        0.000002
       116         -0.99300944        0.000002
       117         -0.99300944        0.000002
       118         -0.99300944        0.000002
       119         -0.99300944        0.000002
       120         -0.99300944        0.000001
       121         -0.99300944        0.000001
       122         -0.99300944        0.000001
       123         -0.99300944        0.000001
       124         -0.99300944        0.000001
       125         -0.99300944        0.000001

 Reached Convergence

 WFN1                     :
 --------------------------
 Total WFN1 energy  =          -0.9930094384
 1-Electron energy  =          -1.4343138268
 2-Electron energy  =           0.2185223397
 Correlation energy =           0.0000000000
 DFT XC energy      =           0.0000000000
 Entropy energy     =           0.0000000000
 Nuclear energy     =           0.2227820488

 conventional Hartree-Fock:
 --------------------------
 Total SCF energy  =          -0.9930094384
 2-Electron energy =           0.2185223397

                WFN1 Final Natural orbital energies and occupations
                ---------------------------------------------------

              Alpha       Beta            Alpha       Beta  
            --------    --------        --------    --------
       1      0.0000      0.0000          1.0000      0.0000
       2      0.0000      0.0000          1.0000      0.0000
       3      0.0000      0.0000          0.0000      0.0000
       4      0.0000      0.0000          0.0000      0.0000

             WFN1 Final Correlation function energies and occupations
             --------------------------------------------------------

              Alpha       Beta            Alpha       Beta  
            --------    --------        --------    --------
       1      0.0000      0.0000          1.0000      0.0000
       2      0.0000      0.0000          1.0000      0.0000
       3      0.0000      0.0000          0.0000      0.0000
       4      0.0000      0.0000          0.0000      0.0000

                WFN1 Final alpha-alpha 2-matrix occupation numbers
                --------------------------------------------------


 global array: g_momo1[1:4,1:4],  handle: -990 

            1           2           3           4  
       ----------- ----------- ----------- -----------
   1      -0.00000     1.00000     0.00000     0.00000
   2       1.00000     0.00000     0.00000     0.00000
   3       0.00000     0.00000     0.00000     0.00000
   4       0.00000     0.00000     0.00000     0.00000

                 WFN1 Final beta-beta 2-matrix occupation numbers
                 ------------------------------------------------


 global array: g_momo2[1:4,1:4],  handle: -989 

            1           2           3           4  
       ----------- ----------- ----------- -----------
   1       0.00000     0.00000     0.00000     0.00000
   2       0.00000     0.00000     0.00000     0.00000
   3       0.00000     0.00000     0.00000     0.00000
   4       0.00000     0.00000     0.00000     0.00000

                  WFN1 Final alpha Correlation Function Analysis
                  ----------------------------------------------


 global array: Ca[1:4,1:4],  handle: -977 

                     1                       2                       3                       4  
       ----------------------- ----------------------- ----------------------- -----------------------
   1      -0.86463,    0.12964     0.47980,   -0.07344     0.00000,   -0.00000     0.00000,   -0.00000
   2      -0.37443,    0.30888    -0.67273,    0.55842     0.00000,   -0.00000    -0.00000,    0.00000
   3       0.00000,   -0.00000     0.00000,    0.00000     0.80539,    0.25221    -0.51312,   -0.15636
   4       0.00000,    0.00000    -0.00000,   -0.00000     0.53577,    0.02621     0.84324,    0.03475

                   WFN1 Final beta Correlation Function Analysis
                   ---------------------------------------------


 global array: Cb[1:4,1:4],  handle: -976 

                     1                       2                       3                       4  
       ----------------------- ----------------------- ----------------------- -----------------------
   1      -0.79618,    0.12427     0.58331,   -0.08862     0.02285,   -0.00945     0.04279,   -0.01034
   2      -0.45307,    0.37277    -0.62445,    0.51044     0.00019,   -0.05684     0.03861,   -0.02368
   3      -0.00524,    0.02705    -0.00163,    0.03204     0.81798,    0.24119    -0.50318,   -0.13322
   4       0.07258,    0.01996     0.01555,    0.01165     0.51651,    0.04587     0.85021,    0.04694

                     WFN1 Final Alpha Natural Orbital Analysis
                     -----------------------------------------

 Vector    1  Occ=1.000000D+00  E= 0.000000D+00
              MO Center=  0.0D+00,  0.0D+00, -1.6D-01, r^2= 2.1D+00
   Bfn.  Coefficient  Atom+Function         Bfn.  Coefficient  Atom+Function  
  ----- ------------  ---------------      ----- ------------  ---------------
     2      0.473341  1 H  s                  4      0.404979  2 H  s          
     1      0.313818  1 H  s                  3      0.271231  2 H  s          

 Vector    2  Occ=1.000000D+00  E= 0.000000D+00
              MO Center=  0.0D+00,  0.0D+00,  1.6D-01, r^2= 2.3D+00
   Bfn.  Coefficient  Atom+Function         Bfn.  Coefficient  Atom+Function  
  ----- ------------  ---------------      ----- ------------  ---------------
     4      0.534643  2 H  s                  2     -0.475183  1 H  s          
     3      0.334342  2 H  s                  1     -0.294735  1 H  s          

 Vector    3  Occ=6.647719D-15  E= 0.000000D+00
              MO Center=  0.0D+00,  0.0D+00,  4.5D-02, r^2= 2.4D+00
   Bfn.  Coefficient  Atom+Function         Bfn.  Coefficient  Atom+Function  
  ----- ------------  ---------------      ----- ------------  ---------------
     3     -0.893231  2 H  s                  1     -0.859227  1 H  s          
     4      0.739038  2 H  s                  2      0.703605  1 H  s          

 Vector    4  Occ=1.262530D-14  E= 0.000000D+00
              MO Center=  0.0D+00,  0.0D+00, -4.5D-02, r^2= 3.1D+00
   Bfn.  Coefficient  Atom+Function         Bfn.  Coefficient  Atom+Function  
  ----- ------------  ---------------      ----- ------------  ---------------
     2      0.966917  1 H  s                  4     -0.940112  2 H  s          
     1     -0.931343  1 H  s                  3      0.898782  2 H  s          


                     WFN1 Final Beta Natural Orbital Analysis
                     ----------------------------------------

 Vector    1  Occ=0.000000D+00  E= 0.000000D+00
              MO Center=  0.0D+00,  0.0D+00, -6.1D-02, r^2= 2.2D+00
   Bfn.  Coefficient  Atom+Function         Bfn.  Coefficient  Atom+Function  
  ----- ------------  ---------------      ----- ------------  ---------------
     2      0.555551  1 H  s                  4      0.481200  2 H  s          
     3      0.212200  2 H  s                  1      0.172631  1 H  s          

 Vector    2  Occ=0.000000D+00  E= 0.000000D+00
              MO Center=  0.0D+00,  0.0D+00,  5.5D-02, r^2= 2.6D+00
   Bfn.  Coefficient  Atom+Function         Bfn.  Coefficient  Atom+Function  
  ----- ------------  ---------------      ----- ------------  ---------------
     4      0.635382  2 H  s                  2     -0.601637  1 H  s          
     1     -0.203240  1 H  s                  3      0.199016  2 H  s          

 Vector    3  Occ=0.000000D+00  E= 0.000000D+00
              MO Center=  0.0D+00,  0.0D+00, -1.5D-02, r^2= 2.2D+00
   Bfn.  Coefficient  Atom+Function         Bfn.  Coefficient  Atom+Function  
  ----- ------------  ---------------      ----- ------------  ---------------
     1     -0.908587  1 H  s                  3     -0.899148  2 H  s          
     2      0.677293  1 H  s                  4      0.656749  2 H  s          

 Vector    4  Occ=0.000000D+00  E= 0.000000D+00
              MO Center=  0.0D+00,  0.0D+00,  2.1D-02, r^2= 2.8D+00
   Bfn.  Coefficient  Atom+Function         Bfn.  Coefficient  Atom+Function  
  ----- ------------  ---------------      ----- ------------  ---------------
     1     -0.945718  1 H  s                  3      0.947585  2 H  s          
     4     -0.901807  2 H  s                  2      0.866319  1 H  s          


 Task  times  cpu:       13.6s     wall:       21.2s
 Summary of allocated global arrays
-----------------------------------
  No active global arrays



                         GA Statistics for process    0
                         ------------------------------

       create   destroy   get      put      acc     scatter   gather  read&inc
calls:   44       44     7.64e+06 2.64e+04 2.09e+04    0        0       11     
number of processes/call 1.00e+00 1.00e+00 1.00e+00 0.00e+00 0.00e+00
bytes total:             9.82e+08 4.67e+06 3.34e+06 0.00e+00 0.00e+00 8.80e+01
bytes remote:            0.00e+00 0.00e+00 0.00e+00 0.00e+00 0.00e+00 0.00e+00
Max memory consumed for GA by this process: 10624 bytes
MA_summarize_allocated_blocks: starting scan ...
MA_summarize_allocated_blocks: scan completed: 0 heap blocks, 0 stack blocks
MA usage statistics:

	allocation statistics:
					      heap	     stack
					      ----	     -----
	current number of blocks	         0	         0
	maximum number of blocks	        19	        17
	current total bytes		         0	         0
	maximum total bytes		   3204360	  22508648
	maximum total K-bytes		      3205	     22509
	maximum total M-bytes		         4	        23


                                NWChem Input Module
                                -------------------





                                     CITATION
                                     --------
                Please cite the following reference when publishing
                           results obtained with NWChem:

                 M. Valiev, E.J. Bylaska, N. Govind, K. Kowalski,
              T.P. Straatsma, H.J.J. van Dam, D. Wang, J. Nieplocha,
                        E. Apra, T.L. Windus, W.A. de Jong
                 "NWChem: a comprehensive and scalable open-source
                  solution for large scale molecular simulations"
                      Comput. Phys. Commun. 181, 1477 (2010)
                           doi:10.1016/j.cpc.2010.04.018

                                      AUTHORS
                                      -------
          E. Apra, E. J. Bylaska, W. A. de Jong, N. Govind, K. Kowalski,
       T. P. Straatsma, M. Valiev, H. J. J. van Dam, D. Wang, T. L. Windus,
        J. Hammond, J. Autschbach, K. Bhaskaran-Nair, J. Brabec, K. Lopata,
    S. A. Fischer, S. Krishnamoorthy, M. Jacquelin, W. Ma, M. Klemm, O. Villa,
      Y. Chen, V. Anisimov, F. Aquino, S. Hirata, M. T. Hackler, V. Konjkov,
      T. Risthaus, M. Malagoli, A. Marenich, A. Otero-de-la-Roza, J. Mullin,
        P. Nichols, R. Peverati, J. Pittner, Y. Zhao, P.-D. Fan, A. Fonari,
       M. Williamson, R. J. Harrison, J. R. Rehr, M. Dupuis, D. Silverstein,
    D. M. A. Smith, J. Nieplocha, V. Tipparaju, M. Krishnan, B. E. Van Kuiken,
        A. Vazquez-Mayagoitia, L. Jensen, M. Swart, Q. Wu, T. Van Voorhis,
     A. A. Auer, M. Nooijen, L. D. Crosby, E. Brown, G. Cisneros, G. I. Fann,
   H. Fruchtl, J. Garza, K. Hirao, R. A. Kendall, J. A. Nichols, K. Tsemekhman,
    K. Wolinski, J. Anchell, D. E. Bernholdt, P. Borowski, T. Clark, D. Clerc,
   H. Dachsel, M. J. O. Deegan, K. Dyall, D. Elwood, E. Glendening, M. Gutowski,
   A. C. Hess, J. Jaffe, B. G. Johnson, J. Ju, R. Kobayashi, R. Kutteh, Z. Lin,
   R. Littlefield, X. Long, B. Meng, T. Nakajima, S. Niu, L. Pollack, M. Rosing,
   K. Glaesemann, G. Sandrone, M. Stave, H. Taylor, G. Thomas, J. H. van Lenthe,
                               A. T. Wong, Z. Zhang.

 Total times  cpu:       13.6s     wall:       21.3s
