 argument  1 = input-wf.nw



============================== echo of input deck ==============================
echo
start wfn1_dat
geometry units au noautoz
  H 0 0 -5.49434600000000000000
  H 0 0  5.49434600000000000000
  symmetry cs
end
basis
  H library 6-31g
end
set wfn1:input_vectors "atomic"
set wfn1:solver "monte-carlo"
set wfn1:print_error F
set wfn1:t_initial 0.1
set wfn1:nopen 2
#set wfn1:corr_expr "wfn1_mx"
set wfn1:corr_expr "wfn1c"
set wfn1:t_bath 0.0
set wfn1:maxit  20000
task wfn1 energy
================================================================================


                                         
                                         


              Northwest Computational Chemistry Package (NWChem) 6.8
              ------------------------------------------------------


                    Environmental Molecular Sciences Laboratory
                       Pacific Northwest National Laboratory
                                Richland, WA 99352

                              Copyright (c) 1994-2015
                       Pacific Northwest National Laboratory
                            Battelle Memorial Institute

             NWChem is an open-source computational chemistry package
                        distributed under the terms of the
                      Educational Community License (ECL) 2.0
             A copy of the license is included with this distribution
                              in the LICENSE.TXT file

                                  ACKNOWLEDGMENT
                                  --------------

            This software and its documentation were developed at the
            EMSL at Pacific Northwest National Laboratory, a multiprogram
            national laboratory, operated for the U.S. Department of Energy
            by Battelle under Contract Number DE-AC05-76RL01830. Support
            for this work was provided by the Department of Energy Office
            of Biological and Environmental Research, Office of Basic
            Energy Sciences, and the Office of Advanced Scientific Computing.


           Job information
           ---------------

    hostname        = erato
    program         = ../../../bin/LINUX64/nwchem
    date            = Sat Mar  6 01:51:40 2021

    compiled        = Sat_Mar_06_01:07:04_2021
    source          = /home/hvandam/nwchem-1-wfn1
    nwchem branch   = Development
    nwchem revision = nwchem_on_git-124-gad72d19fff205e319ffbbf2bca37a04ded6ad57b
    ga revision     = nwchem_on_git-124-gad72d19
    use scalapack   = F
    input           = input-wf.nw
    prefix          = wfn1_dat.
    data base       = ./wfn1_dat.db
    status          = startup
    nproc           =        1
    time left       =     -1s



           Memory information
           ------------------

    heap     =   13107196 doubles =    100.0 Mbytes
    stack    =   13107201 doubles =    100.0 Mbytes
    global   =   26214400 doubles =    200.0 Mbytes (distinct from heap & stack)
    total    =   52428797 doubles =    400.0 Mbytes
    verify   = yes
    hardfail = no 


           Directory information
           ---------------------

  0 permanent = .
  0 scratch   = .




                                NWChem Input Module
                                -------------------


 Turning off AUTOSYM since
 SYMMETRY directive was detected!



                             Geometry "geometry" -> ""
                             -------------------------

 Output coordinates in a.u. (scale by  1.000000000 to convert to a.u.)

  No.       Tag          Charge          X              Y              Z
 ---- ---------------- ---------- -------------- -------------- --------------
    1 H                    1.0000     0.00000000     0.00000000    -5.49434600
    2 H                    1.0000     0.00000000     0.00000000     5.49434600

      Atomic Mass 
      ----------- 

      H                  1.007825


 Effective nuclear repulsion energy (a.u.)       0.0910026416

            Nuclear Dipole moment (a.u.) 
            ----------------------------
        X                 Y               Z
 ---------------- ---------------- ----------------
     0.0000000000     0.0000000000     0.0000000000

      Symmetry information
      --------------------

 Group name             Cs        
 Group number              2
 Group order               2
 No. of unique centers     1

      Symmetry unique atoms

     1


            XYZ format geometry
            -------------------
     2
 geometry
 H                     0.00000000     0.00000000    -2.90748290
 H                     0.00000000     0.00000000     2.90748290

                      Basis "ao basis" -> "" (cartesian)
                      -----
  H (Hydrogen)
  ------------
            Exponent  Coefficients 
       -------------- ---------------------------------------------------------
  1 S  1.87311370E+01  0.033495
  1 S  2.82539370E+00  0.234727
  1 S  6.40121700E-01  0.813757

  2 S  1.61277800E-01  1.000000



 Summary of "ao basis" -> "" (cartesian)
 ------------------------------------------------------------------------------
       Tag                 Description            Shells   Functions and Types
 ---------------- ------------------------------  ------  ---------------------
 H                           6-31g                   2        2   2s



                                NWChem WFN1 Module
                                ------------------



          No. of electrons :     2
           Alpha electrons :     2
            Beta electrons :     0
          Charge           :     0
          Spin multiplicity:     3

 HvD: wfn1_inpdft
 HvD: nquad_task =                     1
 HvD: iangquad   =                     0
 HvD: gridtype   = user      
 HvD: leb        =  T
 HvD: radgrid    = murakn    
 HvD: trunc_neigh=  T
 HvD: lssw       =  T
 HvD: whichssw   = erf1    
 HvD: mxnrad     =                     0
 HvD: mxnang     =                     0
 HVD: wfn1: movecs_in  = atomic                                                                                                                                                                                                                                                          
 HVD: wfn1: movecs_out = ./wfn1_dat.movecs                                                                                                                                                                                                                                               

      Superposition of Atomic Density Guess
      -------------------------------------

 Sum of atomic energies:          -0.99646508

      Non-variational initial energy
      ------------------------------

 Total energy =      -0.682110
 1-e energy   =      -1.178471
 2-e energy   =       0.405359
 HOMO         =      -0.191230
 LUMO         =      -0.191142

 iteration              energy           error
 ---------              ------           -----
         0         -0.98469735        0.080000
         1         -0.98478742        0.080000
         2         -0.98486639        0.080000
         3         -0.98591819        0.080000
         4         -0.98623723        0.080000
         5         -0.98645108        0.080000
         6         -0.98657180        0.080000
         7         -0.98815345        0.080000
         8         -0.98912947        0.080000
         9         -0.99035928        0.080000
        10         -0.99122739        0.080000
        11         -0.99131217        0.080000
        12         -0.99212051        0.080000
        13         -0.99281789        0.080000
        14         -0.99377350        0.080000
        15         -0.99404610        0.080000
        16         -0.99417905        0.080000
        17         -0.99494274        0.080000
        18         -0.99575546        0.080000
        19         -0.99576496        0.080000
        20         -0.99580913        0.080000
        21         -0.99598936        0.080000
        22         -0.99607085        0.080000
        23         -0.99607911        0.071251
        24         -0.99608701        0.062265
        25         -0.99618569        0.062265
        26         -0.99621297        0.062265
        27         -0.99622116        0.062265
        28         -0.99624636        0.062265
        29         -0.99630268        0.062265
        30         -0.99632176        0.053376
        31         -0.99636476        0.050376
        32         -0.99636606        0.050376
        33         -0.99639164        0.043184
        34         -0.99641100        0.043184
        35         -0.99641150        0.043184
        36         -0.99642939        0.031734
        37         -0.99644706        0.031734
        38         -0.99645149        0.028270
        39         -0.99645335        0.028270
        40         -0.99645633        0.017469
        41         -0.99645695        0.017469
        42         -0.99645916        0.017469
        43         -0.99646005        0.010795
        44         -0.99646114        0.010795
        45         -0.99646138        0.008086
        46         -0.99646159        0.007067
        47         -0.99646227        0.007067
        48         -0.99646230        0.006058
        49         -0.99646394        0.006058
        50         -0.99646397        0.006058
        51         -0.99646424        0.006058
        52         -0.99646477        0.005294
        53         -0.99646513        0.004043
        54         -0.99646520        0.003466
        55         -0.99646533        0.002971
        56         -0.99646543        0.002971
        57         -0.99646545        0.002547
        58         -0.99646548        0.002225
        59         -0.99646549        0.002225
        60         -0.99646552        0.002225
        61         -0.99646553        0.002225
        62         -0.99646554        0.002225
        63         -0.99646559        0.002225
        64         -0.99646561        0.002225
        65         -0.99646564        0.002225
        66         -0.99646573        0.001604
        67         -0.99646574        0.001573
        68         -0.99646576        0.001573
        69         -0.99646577        0.001573
        70         -0.99646577        0.001134
        71         -0.99646578        0.001134
        72         -0.99646579        0.001010
        73         -0.99646580        0.001010
        74         -0.99646581        0.001010
        75         -0.99646581        0.000743
        76         -0.99646581        0.000468
        77         -0.99646581        0.000468
        78         -0.99646581        0.000401
        79         -0.99646581        0.000401
        80         -0.99646582        0.000401
        81         -0.99646582        0.000401
        82         -0.99646582        0.000295
        83         -0.99646582        0.000268
        84         -0.99646582        0.000268
        85         -0.99646582        0.000229
        86         -0.99646582        0.000229
        87         -0.99646582        0.000200
        88         -0.99646582        0.000200
        89         -0.99646582        0.000200
        90         -0.99646582        0.000175
        91         -0.99646582        0.000156
        92         -0.99646582        0.000156
        93         -0.99646582        0.000156
        94         -0.99646582        0.000095
        95         -0.99646582        0.000095
        96         -0.99646582        0.000060
        97         -0.99646582        0.000060
        98         -0.99646582        0.000060
        99         -0.99646582        0.000060
       100         -0.99646582        0.000060
       101         -0.99646582        0.000052
       102         -0.99646582        0.000034
       103         -0.99646582        0.000034
       104         -0.99646582        0.000034
       105         -0.99646582        0.000034
       106         -0.99646582        0.000034
       107         -0.99646582        0.000034
       108         -0.99646582        0.000034
       109         -0.99646582        0.000029
       110         -0.99646582        0.000029
       111         -0.99646582        0.000029
       112         -0.99646582        0.000028
       113         -0.99646582        0.000028
       114         -0.99646582        0.000028
       115         -0.99646582        0.000028
       116         -0.99646582        0.000015
       117         -0.99646582        0.000014
       118         -0.99646582        0.000012
       119         -0.99646582        0.000010
       120         -0.99646582        0.000007
       121         -0.99646582        0.000007
       122         -0.99646582        0.000007
       123         -0.99646582        0.000007
       124         -0.99646582        0.000006
       125         -0.99646582        0.000006
       126         -0.99646582        0.000006
       127         -0.99646582        0.000006
       128         -0.99646582        0.000005
       129         -0.99646582        0.000004
       130         -0.99646582        0.000004
       131         -0.99646582        0.000004
       132         -0.99646582        0.000004
       133         -0.99646582        0.000003
       134         -0.99646582        0.000003
       135         -0.99646582        0.000003
       136         -0.99646582        0.000002
       137         -0.99646582        0.000002
       138         -0.99646582        0.000002
       139         -0.99646582        0.000002
       140         -0.99646582        0.000002
       141         -0.99646582        0.000002
       142         -0.99646582        0.000002
       143         -0.99646582        0.000002
       144         -0.99646582        0.000002
       145         -0.99646582        0.000002
       146         -0.99646582        0.000002
       147         -0.99646582        0.000002
       148         -0.99646582        0.000001

 Reached Convergence

 WFN1                     :
 --------------------------
 Total WFN1 energy  =          -0.9964658233
 1-Electron energy  =          -1.1784711078
 2-Electron energy  =           0.0910026428
 Correlation energy =           0.0000000000
 DFT XC energy      =           0.0000000000
 Entropy energy     =           0.0000000000
 Nuclear energy     =           0.0910026416

 conventional Hartree-Fock:
 --------------------------
 Total SCF energy  =          -0.9964658233
 2-Electron energy =           0.0910026428

                WFN1 Final Natural orbital energies and occupations
                ---------------------------------------------------

              Alpha       Beta            Alpha       Beta  
            --------    --------        --------    --------
       1      0.0000      0.0000          1.0000      0.0000
       2      0.0000      0.0000          1.0000      0.0000
       3      0.0000      0.0000          0.0000      0.0000
       4      0.0000      0.0000          0.0000      0.0000

             WFN1 Final Correlation function energies and occupations
             --------------------------------------------------------

              Alpha       Beta            Alpha       Beta  
            --------    --------        --------    --------
       1      0.0000      0.0000          1.0000      0.0000
       2      0.0000      0.0000          1.0000      0.0000
       3      0.0000      0.0000          0.0000      0.0000
       4      0.0000      0.0000          0.0000      0.0000

                WFN1 Final alpha-alpha 2-matrix occupation numbers
                --------------------------------------------------


 global array: g_momo1[1:4,1:4],  handle: -990 

            1           2           3           4  
       ----------- ----------- ----------- -----------
   1      -0.00000     1.00000     0.00000     0.00000
   2       1.00000     0.00000     0.00000     0.00000
   3       0.00000     0.00000    -0.00000     0.00000
   4       0.00000     0.00000     0.00000     0.00000

                 WFN1 Final beta-beta 2-matrix occupation numbers
                 ------------------------------------------------


 global array: g_momo2[1:4,1:4],  handle: -989 

            1           2           3           4  
       ----------- ----------- ----------- -----------
   1       0.00000     0.00000     0.00000     0.00000
   2       0.00000     0.00000     0.00000     0.00000
   3       0.00000     0.00000     0.00000     0.00000
   4       0.00000     0.00000     0.00000     0.00000

                  WFN1 Final alpha Correlation Function Analysis
                  ----------------------------------------------


 global array: Ca[1:4,1:4],  handle: -981 

                     1                       2                       3                       4  
       ----------------------- ----------------------- ----------------------- -----------------------
   1       0.62497,    0.35143     0.60677,    0.34314     0.00000,   -0.00000     0.00000,   -0.00000
   2       0.16820,   -0.67648    -0.17470,    0.69539     0.00000,    0.00000    -0.00000,   -0.00000
   3       0.00000,    0.00000     0.00000,    0.00000    -0.23220,    0.66469    -0.23443,    0.67031
   4       0.00000,   -0.00000    -0.00000,   -0.00000     0.68696,    0.17988    -0.68106,   -0.17859

                   WFN1 Final beta Correlation Function Analysis
                   ---------------------------------------------


 global array: Cb[1:4,1:4],  handle: -980 

                     1                       2                       3                       4  
       ----------------------- ----------------------- ----------------------- -----------------------
   1       0.61744,    0.34820     0.61343,    0.34645     0.02150,    0.00928     0.02460,   -0.00710
   2       0.16982,   -0.68428    -0.17190,    0.68757     0.01123,    0.02074     0.00757,   -0.00381
   3       0.00316,   -0.01410     0.02870,   -0.01924    -0.22657,    0.70052    -0.20479,    0.64389
   4       0.00550,    0.01468    -0.01355,    0.00018     0.64830,    0.19116    -0.70787,   -0.20409

                     WFN1 Final Alpha Natural Orbital Analysis
                     -----------------------------------------

 Vector    1  Occ=1.000000D+00  E= 0.000000D+00
              MO Center=  0.0D+00,  0.0D+00,  4.3D-01, r^2= 9.1D+00
   Bfn.  Coefficient  Atom+Function         Bfn.  Coefficient  Atom+Function  
  ----- ------------  ---------------      ----- ------------  ---------------
     4     -0.504147  2 H  s                  2     -0.434395  1 H  s          
     3     -0.323778  2 H  s                  1     -0.278968  1 H  s          

 Vector    2  Occ=1.000000D+00  E= 0.000000D+00
              MO Center=  0.0D+00,  0.0D+00, -4.3D-01, r^2= 9.1D+00
   Bfn.  Coefficient  Atom+Function         Bfn.  Coefficient  Atom+Function  
  ----- ------------  ---------------      ----- ------------  ---------------
     2      0.504107  1 H  s                  4     -0.434348  2 H  s          
     1      0.323842  1 H  s                  3     -0.279042  2 H  s          

 Vector    3  Occ=7.990015D-15  E= 0.000000D+00
              MO Center=  0.0D+00,  0.0D+00, -1.6D-01, r^2= 9.6D+00
   Bfn.  Coefficient  Atom+Function         Bfn.  Coefficient  Atom+Function  
  ----- ------------  ---------------      ----- ------------  ---------------
     1     -0.913356  1 H  s                  3     -0.864754  2 H  s          
     2      0.834840  1 H  s                  4      0.790410  2 H  s          

 Vector    4  Occ=2.610951D-15  E= 0.000000D+00
              MO Center=  0.0D+00,  0.0D+00,  1.6D-01, r^2= 9.6D+00
   Bfn.  Coefficient  Atom+Function         Bfn.  Coefficient  Atom+Function  
  ----- ------------  ---------------      ----- ------------  ---------------
     3      0.913376  2 H  s                  1     -0.864776  1 H  s          
     4     -0.834974  2 H  s                  2      0.790552  1 H  s          


                     WFN1 Final Beta Natural Orbital Analysis
                     ----------------------------------------

 Vector    1  Occ=0.000000D+00  E= 0.000000D+00
              MO Center=  0.0D+00,  0.0D+00, -2.3D-01, r^2= 9.3D+00
   Bfn.  Coefficient  Atom+Function         Bfn.  Coefficient  Atom+Function  
  ----- ------------  ---------------      ----- ------------  ---------------
     2     -0.577054  1 H  s                  4     -0.481925  2 H  s          
     3     -0.256129  2 H  s                  1     -0.212507  1 H  s          

 Vector    2  Occ=0.000000D+00  E= 0.000000D+00
              MO Center=  0.0D+00,  0.0D+00,  2.3D-01, r^2= 9.4D+00
   Bfn.  Coefficient  Atom+Function         Bfn.  Coefficient  Atom+Function  
  ----- ------------  ---------------      ----- ------------  ---------------
     2      0.574069  1 H  s                  4     -0.549242  2 H  s          
     3     -0.245207  2 H  s                  1      0.145722  1 H  s          

 Vector    3  Occ=0.000000D+00  E= 0.000000D+00
              MO Center=  0.0D+00,  0.0D+00,  1.9D-01, r^2= 9.5D+00
   Bfn.  Coefficient  Atom+Function         Bfn.  Coefficient  Atom+Function  
  ----- ------------  ---------------      ----- ------------  ---------------
     3     -0.927390  2 H  s                  1     -0.887747  1 H  s          
     4      0.823748  2 H  s                  2      0.727671  1 H  s          

 Vector    4  Occ=0.000000D+00  E= 0.000000D+00
              MO Center=  0.0D+00,  0.0D+00, -1.9D-01, r^2= 9.4D+00
   Bfn.  Coefficient  Atom+Function         Bfn.  Coefficient  Atom+Function  
  ----- ------------  ---------------      ----- ------------  ---------------
     1     -0.954078  1 H  s                  3      0.882594  2 H  s          
     2      0.756770  1 H  s                  4     -0.743151  2 H  s          


 Task  times  cpu:       14.0s     wall:       25.2s
 Summary of allocated global arrays
-----------------------------------
  No active global arrays



                         GA Statistics for process    0
                         ------------------------------

       create   destroy   get      put      acc     scatter   gather  read&inc
calls:   44       44     8.29e+06 2.86e+04 2.27e+04    0        0       10     
number of processes/call 1.00e+00 1.00e+00 1.00e+00 0.00e+00 0.00e+00
bytes total:             1.07e+09 5.07e+06 3.62e+06 0.00e+00 0.00e+00 8.00e+01
bytes remote:            0.00e+00 0.00e+00 0.00e+00 0.00e+00 0.00e+00 0.00e+00
Max memory consumed for GA by this process: 10624 bytes
MA_summarize_allocated_blocks: starting scan ...
MA_summarize_allocated_blocks: scan completed: 0 heap blocks, 0 stack blocks
MA usage statistics:

	allocation statistics:
					      heap	     stack
					      ----	     -----
	current number of blocks	         0	         0
	maximum number of blocks	        19	        17
	current total bytes		         0	         0
	maximum total bytes		   3204360	  22508648
	maximum total K-bytes		      3205	     22509
	maximum total M-bytes		         4	        23


                                NWChem Input Module
                                -------------------





                                     CITATION
                                     --------
                Please cite the following reference when publishing
                           results obtained with NWChem:

                 M. Valiev, E.J. Bylaska, N. Govind, K. Kowalski,
              T.P. Straatsma, H.J.J. van Dam, D. Wang, J. Nieplocha,
                        E. Apra, T.L. Windus, W.A. de Jong
                 "NWChem: a comprehensive and scalable open-source
                  solution for large scale molecular simulations"
                      Comput. Phys. Commun. 181, 1477 (2010)
                           doi:10.1016/j.cpc.2010.04.018

                                      AUTHORS
                                      -------
          E. Apra, E. J. Bylaska, W. A. de Jong, N. Govind, K. Kowalski,
       T. P. Straatsma, M. Valiev, H. J. J. van Dam, D. Wang, T. L. Windus,
        J. Hammond, J. Autschbach, K. Bhaskaran-Nair, J. Brabec, K. Lopata,
    S. A. Fischer, S. Krishnamoorthy, M. Jacquelin, W. Ma, M. Klemm, O. Villa,
      Y. Chen, V. Anisimov, F. Aquino, S. Hirata, M. T. Hackler, V. Konjkov,
      T. Risthaus, M. Malagoli, A. Marenich, A. Otero-de-la-Roza, J. Mullin,
        P. Nichols, R. Peverati, J. Pittner, Y. Zhao, P.-D. Fan, A. Fonari,
       M. Williamson, R. J. Harrison, J. R. Rehr, M. Dupuis, D. Silverstein,
    D. M. A. Smith, J. Nieplocha, V. Tipparaju, M. Krishnan, B. E. Van Kuiken,
        A. Vazquez-Mayagoitia, L. Jensen, M. Swart, Q. Wu, T. Van Voorhis,
     A. A. Auer, M. Nooijen, L. D. Crosby, E. Brown, G. Cisneros, G. I. Fann,
   H. Fruchtl, J. Garza, K. Hirao, R. A. Kendall, J. A. Nichols, K. Tsemekhman,
    K. Wolinski, J. Anchell, D. E. Bernholdt, P. Borowski, T. Clark, D. Clerc,
   H. Dachsel, M. J. O. Deegan, K. Dyall, D. Elwood, E. Glendening, M. Gutowski,
   A. C. Hess, J. Jaffe, B. G. Johnson, J. Ju, R. Kobayashi, R. Kutteh, Z. Lin,
   R. Littlefield, X. Long, B. Meng, T. Nakajima, S. Niu, L. Pollack, M. Rosing,
   K. Glaesemann, G. Sandrone, M. Stave, H. Taylor, G. Thomas, J. H. van Lenthe,
                               A. T. Wong, Z. Zhang.

 Total times  cpu:       14.0s     wall:       25.3s
