 argument  1 = input-wf.nw



============================== echo of input deck ==============================
echo
start wfn1_dat
geometry units au noautoz
  H 0 0 -4.99434600000000000000
  H 0 0  4.99434600000000000000
  symmetry cs
end
basis
  H library 6-31g
end
set wfn1:input_vectors "atomic"
set wfn1:solver "monte-carlo"
set wfn1:print_error F
set wfn1:t_initial 0.1
set wfn1:nopen 2
#set wfn1:corr_expr "wfn1_mx"
set wfn1:corr_expr "wfn1c"
set wfn1:t_bath 0.0
set wfn1:maxit  20000
task wfn1 energy
================================================================================


                                         
                                         


              Northwest Computational Chemistry Package (NWChem) 6.8
              ------------------------------------------------------


                    Environmental Molecular Sciences Laboratory
                       Pacific Northwest National Laboratory
                                Richland, WA 99352

                              Copyright (c) 1994-2015
                       Pacific Northwest National Laboratory
                            Battelle Memorial Institute

             NWChem is an open-source computational chemistry package
                        distributed under the terms of the
                      Educational Community License (ECL) 2.0
             A copy of the license is included with this distribution
                              in the LICENSE.TXT file

                                  ACKNOWLEDGMENT
                                  --------------

            This software and its documentation were developed at the
            EMSL at Pacific Northwest National Laboratory, a multiprogram
            national laboratory, operated for the U.S. Department of Energy
            by Battelle under Contract Number DE-AC05-76RL01830. Support
            for this work was provided by the Department of Energy Office
            of Biological and Environmental Research, Office of Basic
            Energy Sciences, and the Office of Advanced Scientific Computing.


           Job information
           ---------------

    hostname        = erato
    program         = ../../../bin/LINUX64/nwchem
    date            = Sat Mar  6 01:48:16 2021

    compiled        = Sat_Mar_06_01:07:04_2021
    source          = /home/hvandam/nwchem-1-wfn1
    nwchem branch   = Development
    nwchem revision = nwchem_on_git-124-gad72d19fff205e319ffbbf2bca37a04ded6ad57b
    ga revision     = nwchem_on_git-124-gad72d19
    use scalapack   = F
    input           = input-wf.nw
    prefix          = wfn1_dat.
    data base       = ./wfn1_dat.db
    status          = startup
    nproc           =        1
    time left       =     -1s



           Memory information
           ------------------

    heap     =   13107196 doubles =    100.0 Mbytes
    stack    =   13107201 doubles =    100.0 Mbytes
    global   =   26214400 doubles =    200.0 Mbytes (distinct from heap & stack)
    total    =   52428797 doubles =    400.0 Mbytes
    verify   = yes
    hardfail = no 


           Directory information
           ---------------------

  0 permanent = .
  0 scratch   = .




                                NWChem Input Module
                                -------------------


 Turning off AUTOSYM since
 SYMMETRY directive was detected!



                             Geometry "geometry" -> ""
                             -------------------------

 Output coordinates in a.u. (scale by  1.000000000 to convert to a.u.)

  No.       Tag          Charge          X              Y              Z
 ---- ---------------- ---------- -------------- -------------- --------------
    1 H                    1.0000     0.00000000     0.00000000    -4.99434600
    2 H                    1.0000     0.00000000     0.00000000     4.99434600

      Atomic Mass 
      ----------- 

      H                  1.007825


 Effective nuclear repulsion energy (a.u.)       0.1001132080

            Nuclear Dipole moment (a.u.) 
            ----------------------------
        X                 Y               Z
 ---------------- ---------------- ----------------
     0.0000000000     0.0000000000     0.0000000000

      Symmetry information
      --------------------

 Group name             Cs        
 Group number              2
 Group order               2
 No. of unique centers     1

      Symmetry unique atoms

     1


            XYZ format geometry
            -------------------
     2
 geometry
 H                     0.00000000     0.00000000    -2.64289428
 H                     0.00000000     0.00000000     2.64289428

                      Basis "ao basis" -> "" (cartesian)
                      -----
  H (Hydrogen)
  ------------
            Exponent  Coefficients 
       -------------- ---------------------------------------------------------
  1 S  1.87311370E+01  0.033495
  1 S  2.82539370E+00  0.234727
  1 S  6.40121700E-01  0.813757

  2 S  1.61277800E-01  1.000000



 Summary of "ao basis" -> "" (cartesian)
 ------------------------------------------------------------------------------
       Tag                 Description            Shells   Functions and Types
 ---------------- ------------------------------  ------  ---------------------
 H                           6-31g                   2        2   2s



                                NWChem WFN1 Module
                                ------------------



          No. of electrons :     2
           Alpha electrons :     2
            Beta electrons :     0
          Charge           :     0
          Spin multiplicity:     3

 HvD: wfn1_inpdft
 HvD: nquad_task =                     1
 HvD: iangquad   =                     0
 HvD: gridtype   = user      
 HvD: leb        =  T
 HvD: radgrid    = murakn    
 HvD: trunc_neigh=  T
 HvD: lssw       =  T
 HvD: whichssw   = erf1    
 HvD: mxnrad     =                     0
 HvD: mxnang     =                     0
 HVD: wfn1: movecs_in  = atomic                                                                                                                                                                                                                                                          
 HVD: wfn1: movecs_out = ./wfn1_dat.movecs                                                                                                                                                                                                                                               

      Superposition of Atomic Density Guess
      -------------------------------------

 Sum of atomic energies:          -0.99646508

      Non-variational initial energy
      ------------------------------

 Total energy =      -0.682110
 1-e energy   =      -1.196692
 2-e energy   =       0.414469
 HOMO         =      -0.191378
 LUMO         =      -0.190994

 iteration              energy           error
 ---------              ------           -----
         0         -0.98469741        0.080000
         1         -0.98514807        0.080000
         2         -0.98625553        0.080000
         3         -0.98673644        0.080000
         4         -0.98766386        0.080000
         5         -0.98782281        0.080000
         6         -0.98816976        0.080000
         7         -0.98959221        0.080000
         8         -0.99010486        0.080000
         9         -0.99107330        0.080000
        10         -0.99139526        0.080000
        11         -0.99159304        0.080000
        12         -0.99299549        0.080000
        13         -0.99307632        0.080000
        14         -0.99362987        0.080000
        15         -0.99384732        0.080000
        16         -0.99406194        0.080000
        17         -0.99441927        0.080000
        18         -0.99526878        0.080000
        19         -0.99530055        0.080000
        20         -0.99570380        0.080000
        21         -0.99591210        0.080000
        22         -0.99612522        0.080000
        23         -0.99617186        0.080000
        24         -0.99619650        0.080000
        25         -0.99627568        0.080000
        26         -0.99629430        0.075485
        27         -0.99630524        0.065965
        28         -0.99630622        0.065965
        29         -0.99635537        0.065965
        30         -0.99635664        0.039985
        31         -0.99638943        0.039985
        32         -0.99641390        0.035621
        33         -0.99641787        0.026176
        34         -0.99642765        0.026176
        35         -0.99643785        0.022439
        36         -0.99644266        0.022439
        37         -0.99645042        0.019609
        38         -0.99645425        0.017136
        39         -0.99645681        0.014690
        40         -0.99645895        0.012592
        41         -0.99645947        0.010795
        42         -0.99646124        0.010795
        43         -0.99646241        0.010795
        44         -0.99646268        0.007781
        45         -0.99646313        0.006932
        46         -0.99646336        0.005942
        47         -0.99646350        0.005942
        48         -0.99646373        0.005942
        49         -0.99646430        0.005942
        50         -0.99646500        0.005942
        51         -0.99646515        0.004283
        52         -0.99646518        0.003966
        53         -0.99646534        0.003400
        54         -0.99646538        0.003400
        55         -0.99646547        0.002914
        56         -0.99646556        0.002914
        57         -0.99646558        0.002914
        58         -0.99646558        0.001801
        59         -0.99646568        0.001604
        60         -0.99646570        0.001604
        61         -0.99646575        0.001604
        62         -0.99646578        0.001375
        63         -0.99646578        0.001375
        64         -0.99646578        0.000728
        65         -0.99646581        0.000728
        66         -0.99646581        0.000637
        67         -0.99646581        0.000556
        68         -0.99646581        0.000556
        69         -0.99646581        0.000556
        70         -0.99646581        0.000556
        71         -0.99646583        0.000556
        72         -0.99646583        0.000477
        73         -0.99646583        0.000477
        74         -0.99646583        0.000477
        75         -0.99646583        0.000477
        76         -0.99646584        0.000442
        77         -0.99646584        0.000442
        78         -0.99646584        0.000401
        79         -0.99646584        0.000401
        80         -0.99646584        0.000295
        81         -0.99646584        0.000295
        82         -0.99646584        0.000257
        83         -0.99646584        0.000257
        84         -0.99646584        0.000189
        85         -0.99646584        0.000165
        86         -0.99646584        0.000142
        87         -0.99646584        0.000122
        88         -0.99646584        0.000122
        89         -0.99646584        0.000104
        90         -0.99646584        0.000091
        91         -0.99646584        0.000091
        92         -0.99646584        0.000091
        93         -0.99646585        0.000078
        94         -0.99646585        0.000070
        95         -0.99646585        0.000060
        96         -0.99646585        0.000043
        97         -0.99646585        0.000037
        98         -0.99646585        0.000032
        99         -0.99646585        0.000032
       100         -0.99646585        0.000032
       101         -0.99646585        0.000027
       102         -0.99646585        0.000027
       103         -0.99646585        0.000024
       104         -0.99646585        0.000024
       105         -0.99646585        0.000018
       106         -0.99646585        0.000018
       107         -0.99646585        0.000015
       108         -0.99646585        0.000014
       109         -0.99646585        0.000014
       110         -0.99646585        0.000012
       111         -0.99646585        0.000012
       112         -0.99646585        0.000010
       113         -0.99646585        0.000009
       114         -0.99646585        0.000009
       115         -0.99646585        0.000009
       116         -0.99646585        0.000009
       117         -0.99646585        0.000006
       118         -0.99646585        0.000006
       119         -0.99646585        0.000006
       120         -0.99646585        0.000003
       121         -0.99646585        0.000003
       122         -0.99646585        0.000003
       123         -0.99646585        0.000002
       124         -0.99646585        0.000002
       125         -0.99646585        0.000002
       126         -0.99646585        0.000002
       127         -0.99646585        0.000002
       128         -0.99646585        0.000001

 Reached Convergence

 WFN1                     :
 --------------------------
 Total WFN1 energy  =          -0.9964658453
 1-Electron energy  =          -1.1966922814
 2-Electron energy  =           0.1001132281
 Correlation energy =           0.0000000000
 DFT XC energy      =           0.0000000000
 Entropy energy     =           0.0000000000
 Nuclear energy     =           0.1001132080

 conventional Hartree-Fock:
 --------------------------
 Total SCF energy  =          -0.9964658453
 2-Electron energy =           0.1001132281

                WFN1 Final Natural orbital energies and occupations
                ---------------------------------------------------

              Alpha       Beta            Alpha       Beta  
            --------    --------        --------    --------
       1      0.0000      0.0000          1.0000      0.0000
       2      0.0000      0.0000          1.0000      0.0000
       3      0.0000      0.0000          0.0000      0.0000
       4      0.0000      0.0000          0.0000      0.0000

             WFN1 Final Correlation function energies and occupations
             --------------------------------------------------------

              Alpha       Beta            Alpha       Beta  
            --------    --------        --------    --------
       1      0.0000      0.0000          1.0000      0.0000
       2      0.0000      0.0000          1.0000      0.0000
       3      0.0000      0.0000          0.0000      0.0000
       4      0.0000      0.0000          0.0000      0.0000

                WFN1 Final alpha-alpha 2-matrix occupation numbers
                --------------------------------------------------


 global array: g_momo1[1:4,1:4],  handle: -990 

            1           2           3           4  
       ----------- ----------- ----------- -----------
   1       0.00000     1.00000     0.00000     0.00000
   2       1.00000     0.00000     0.00000     0.00000
   3       0.00000     0.00000     0.00000     0.00000
   4       0.00000     0.00000     0.00000    -0.00000

                 WFN1 Final beta-beta 2-matrix occupation numbers
                 ------------------------------------------------


 global array: g_momo2[1:4,1:4],  handle: -989 

            1           2           3           4  
       ----------- ----------- ----------- -----------
   1       0.00000     0.00000     0.00000     0.00000
   2       0.00000     0.00000     0.00000     0.00000
   3       0.00000     0.00000     0.00000     0.00000
   4       0.00000     0.00000     0.00000     0.00000

                  WFN1 Final alpha Correlation Function Analysis
                  ----------------------------------------------


 global array: Ca[1:4,1:4],  handle: -981 

                     1                       2                       3                       4  
       ----------------------- ----------------------- ----------------------- -----------------------
   1       0.58624,    0.46482     0.52276,    0.40864    -0.00000,    0.00000     0.00000,   -0.00000
   2       0.08014,   -0.65867    -0.08523,    0.74328    -0.00000,   -0.00000     0.00000,    0.00000
   3       0.00000,   -0.00000    -0.00000,    0.00000    -0.68176,   -0.11320    -0.71268,   -0.12033
   4      -0.00000,    0.00000     0.00000,   -0.00000    -0.39347,   -0.60627     0.37464,    0.58074

                   WFN1 Final beta Correlation Function Analysis
                   ---------------------------------------------


 global array: Cb[1:4,1:4],  handle: -980 

                     1                       2                       3                       4  
       ----------------------- ----------------------- ----------------------- -----------------------
   1       0.54750,    0.47854     0.51606,    0.45104     0.03224,    0.01758     0.00000,    0.01155
   2       0.04661,   -0.68406    -0.04971,    0.72343     0.02160,    0.04929     0.01170,   -0.03212
   3       0.01545,   -0.01538     0.02966,    0.02182    -0.74188,   -0.08462    -0.65971,   -0.07351
   4      -0.01456,   -0.02092     0.01368,    0.05365    -0.33025,   -0.57371     0.37555,    0.64578

                     WFN1 Final Alpha Natural Orbital Analysis
                     -----------------------------------------

 Vector    1  Occ=1.000000D+00  E= 0.000000D+00
              MO Center=  0.0D+00,  0.0D+00,  3.0D-02, r^2= 7.8D+00
   Bfn.  Coefficient  Atom+Function         Bfn.  Coefficient  Atom+Function  
  ----- ------------  ---------------      ----- ------------  ---------------
     4     -0.473294  2 H  s                  2     -0.467939  1 H  s          
     3     -0.303809  2 H  s                  1     -0.300366  1 H  s          

 Vector    2  Occ=1.000000D+00  E= 0.000000D+00
              MO Center=  0.0D+00,  0.0D+00, -3.0D-02, r^2= 7.8D+00
   Bfn.  Coefficient  Atom+Function         Bfn.  Coefficient  Atom+Function  
  ----- ------------  ---------------      ----- ------------  ---------------
     2      0.473134  1 H  s                  4     -0.467777  2 H  s          
     1      0.304100  1 H  s                  3     -0.300661  2 H  s          

 Vector    3  Occ=1.794420D-14  E= 0.000000D+00
              MO Center=  0.0D+00,  0.0D+00,  7.6D-02, r^2= 8.2D+00
   Bfn.  Coefficient  Atom+Function         Bfn.  Coefficient  Atom+Function  
  ----- ------------  ---------------      ----- ------------  ---------------
     3     -0.901968  2 H  s                  1     -0.876505  1 H  s          
     4      0.824205  2 H  s                  2      0.800921  1 H  s          

 Vector    4  Occ=3.232787D-14  E= 0.000000D+00
              MO Center=  0.0D+00,  0.0D+00, -7.6D-02, r^2= 8.2D+00
   Bfn.  Coefficient  Atom+Function         Bfn.  Coefficient  Atom+Function  
  ----- ------------  ---------------      ----- ------------  ---------------
     1     -0.902106  1 H  s                  3      0.876647  2 H  s          
     2      0.824898  1 H  s                  4     -0.801634  2 H  s          


                     WFN1 Final Beta Natural Orbital Analysis
                     ----------------------------------------

 Vector    1  Occ=0.000000D+00  E= 0.000000D+00
              MO Center=  0.0D+00,  0.0D+00,  2.4D-01, r^2= 7.8D+00
   Bfn.  Coefficient  Atom+Function         Bfn.  Coefficient  Atom+Function  
  ----- ------------  ---------------      ----- ------------  ---------------
     4     -0.541976  2 H  s                  2     -0.524809  1 H  s          
     3     -0.259108  2 H  s                  1     -0.200401  1 H  s          

 Vector    2  Occ=0.000000D+00  E= 0.000000D+00
              MO Center=  0.0D+00,  0.0D+00, -2.6D-01, r^2= 7.7D+00
   Bfn.  Coefficient  Atom+Function         Bfn.  Coefficient  Atom+Function  
  ----- ------------  ---------------      ----- ------------  ---------------
     2      0.485222  1 H  s                  4     -0.461704  2 H  s          
     1      0.324897  1 H  s                  3     -0.271213  2 H  s          

 Vector    3  Occ=0.000000D+00  E= 0.000000D+00
              MO Center=  0.0D+00,  0.0D+00, -2.5D-02, r^2= 8.1D+00
   Bfn.  Coefficient  Atom+Function         Bfn.  Coefficient  Atom+Function  
  ----- ------------  ---------------      ----- ------------  ---------------
     1     -0.910510  1 H  s                  3     -0.910098  2 H  s          
     2      0.785926  1 H  s                  4      0.759446  2 H  s          

 Vector    4  Occ=0.000000D+00  E= 0.000000D+00
              MO Center=  0.0D+00,  0.0D+00,  3.9D-02, r^2= 8.2D+00
   Bfn.  Coefficient  Atom+Function         Bfn.  Coefficient  Atom+Function  
  ----- ------------  ---------------      ----- ------------  ---------------
     1     -0.888822  1 H  s                  3      0.892066  2 H  s          
     4     -0.825280  2 H  s                  2      0.797627  1 H  s          


 Task  times  cpu:       13.1s     wall:       20.4s
 Summary of allocated global arrays
-----------------------------------
  No active global arrays



                         GA Statistics for process    0
                         ------------------------------

       create   destroy   get      put      acc     scatter   gather  read&inc
calls:   44       44     7.63e+06 2.64e+04 2.09e+04    0        0       10     
number of processes/call 1.00e+00 1.00e+00 1.00e+00 0.00e+00 0.00e+00
bytes total:             9.81e+08 4.67e+06 3.33e+06 0.00e+00 0.00e+00 8.00e+01
bytes remote:            0.00e+00 0.00e+00 0.00e+00 0.00e+00 0.00e+00 0.00e+00
Max memory consumed for GA by this process: 10624 bytes
MA_summarize_allocated_blocks: starting scan ...
MA_summarize_allocated_blocks: scan completed: 0 heap blocks, 0 stack blocks
MA usage statistics:

	allocation statistics:
					      heap	     stack
					      ----	     -----
	current number of blocks	         0	         0
	maximum number of blocks	        19	        17
	current total bytes		         0	         0
	maximum total bytes		   3204360	  22508648
	maximum total K-bytes		      3205	     22509
	maximum total M-bytes		         4	        23


                                NWChem Input Module
                                -------------------





                                     CITATION
                                     --------
                Please cite the following reference when publishing
                           results obtained with NWChem:

                 M. Valiev, E.J. Bylaska, N. Govind, K. Kowalski,
              T.P. Straatsma, H.J.J. van Dam, D. Wang, J. Nieplocha,
                        E. Apra, T.L. Windus, W.A. de Jong
                 "NWChem: a comprehensive and scalable open-source
                  solution for large scale molecular simulations"
                      Comput. Phys. Commun. 181, 1477 (2010)
                           doi:10.1016/j.cpc.2010.04.018

                                      AUTHORS
                                      -------
          E. Apra, E. J. Bylaska, W. A. de Jong, N. Govind, K. Kowalski,
       T. P. Straatsma, M. Valiev, H. J. J. van Dam, D. Wang, T. L. Windus,
        J. Hammond, J. Autschbach, K. Bhaskaran-Nair, J. Brabec, K. Lopata,
    S. A. Fischer, S. Krishnamoorthy, M. Jacquelin, W. Ma, M. Klemm, O. Villa,
      Y. Chen, V. Anisimov, F. Aquino, S. Hirata, M. T. Hackler, V. Konjkov,
      T. Risthaus, M. Malagoli, A. Marenich, A. Otero-de-la-Roza, J. Mullin,
        P. Nichols, R. Peverati, J. Pittner, Y. Zhao, P.-D. Fan, A. Fonari,
       M. Williamson, R. J. Harrison, J. R. Rehr, M. Dupuis, D. Silverstein,
    D. M. A. Smith, J. Nieplocha, V. Tipparaju, M. Krishnan, B. E. Van Kuiken,
        A. Vazquez-Mayagoitia, L. Jensen, M. Swart, Q. Wu, T. Van Voorhis,
     A. A. Auer, M. Nooijen, L. D. Crosby, E. Brown, G. Cisneros, G. I. Fann,
   H. Fruchtl, J. Garza, K. Hirao, R. A. Kendall, J. A. Nichols, K. Tsemekhman,
    K. Wolinski, J. Anchell, D. E. Bernholdt, P. Borowski, T. Clark, D. Clerc,
   H. Dachsel, M. J. O. Deegan, K. Dyall, D. Elwood, E. Glendening, M. Gutowski,
   A. C. Hess, J. Jaffe, B. G. Johnson, J. Ju, R. Kobayashi, R. Kutteh, Z. Lin,
   R. Littlefield, X. Long, B. Meng, T. Nakajima, S. Niu, L. Pollack, M. Rosing,
   K. Glaesemann, G. Sandrone, M. Stave, H. Taylor, G. Thomas, J. H. van Lenthe,
                               A. T. Wong, Z. Zhang.

 Total times  cpu:       13.1s     wall:       20.4s
