 argument  1 = input-wf.nw



============================== echo of input deck ==============================
echo
start wfn1_dat
geometry units au noautoz
  H 0 0 -1.89434600000000000000
  H 0 0  1.89434600000000000000
  symmetry cs
end
basis
  H library 6-31g
end
set wfn1:input_vectors "atomic"
set wfn1:solver "monte-carlo"
set wfn1:print_error F
set wfn1:t_initial 0.1
set wfn1:nopen 2
#set wfn1:corr_expr "wfn1_mx"
set wfn1:corr_expr "wfn1c"
set wfn1:t_bath 0.0
set wfn1:maxit  20000
task wfn1 energy
================================================================================


                                         
                                         


              Northwest Computational Chemistry Package (NWChem) 6.8
              ------------------------------------------------------


                    Environmental Molecular Sciences Laboratory
                       Pacific Northwest National Laboratory
                                Richland, WA 99352

                              Copyright (c) 1994-2015
                       Pacific Northwest National Laboratory
                            Battelle Memorial Institute

             NWChem is an open-source computational chemistry package
                        distributed under the terms of the
                      Educational Community License (ECL) 2.0
             A copy of the license is included with this distribution
                              in the LICENSE.TXT file

                                  ACKNOWLEDGMENT
                                  --------------

            This software and its documentation were developed at the
            EMSL at Pacific Northwest National Laboratory, a multiprogram
            national laboratory, operated for the U.S. Department of Energy
            by Battelle under Contract Number DE-AC05-76RL01830. Support
            for this work was provided by the Department of Energy Office
            of Biological and Environmental Research, Office of Basic
            Energy Sciences, and the Office of Advanced Scientific Computing.


           Job information
           ---------------

    hostname        = erato
    program         = ../../../bin/LINUX64/nwchem
    date            = Sat Mar  6 01:26:22 2021

    compiled        = Sat_Mar_06_01:07:04_2021
    source          = /home/hvandam/nwchem-1-wfn1
    nwchem branch   = Development
    nwchem revision = nwchem_on_git-124-gad72d19fff205e319ffbbf2bca37a04ded6ad57b
    ga revision     = nwchem_on_git-124-gad72d19
    use scalapack   = F
    input           = input-wf.nw
    prefix          = wfn1_dat.
    data base       = ./wfn1_dat.db
    status          = startup
    nproc           =        1
    time left       =     -1s



           Memory information
           ------------------

    heap     =   13107196 doubles =    100.0 Mbytes
    stack    =   13107201 doubles =    100.0 Mbytes
    global   =   26214400 doubles =    200.0 Mbytes (distinct from heap & stack)
    total    =   52428797 doubles =    400.0 Mbytes
    verify   = yes
    hardfail = no 


           Directory information
           ---------------------

  0 permanent = .
  0 scratch   = .




                                NWChem Input Module
                                -------------------


 Turning off AUTOSYM since
 SYMMETRY directive was detected!



                             Geometry "geometry" -> ""
                             -------------------------

 Output coordinates in a.u. (scale by  1.000000000 to convert to a.u.)

  No.       Tag          Charge          X              Y              Z
 ---- ---------------- ---------- -------------- -------------- --------------
    1 H                    1.0000     0.00000000     0.00000000    -1.89434600
    2 H                    1.0000     0.00000000     0.00000000     1.89434600

      Atomic Mass 
      ----------- 

      H                  1.007825


 Effective nuclear repulsion energy (a.u.)       0.2639433345

            Nuclear Dipole moment (a.u.) 
            ----------------------------
        X                 Y               Z
 ---------------- ---------------- ----------------
     0.0000000000     0.0000000000     0.0000000000

      Symmetry information
      --------------------

 Group name             Cs        
 Group number              2
 Group order               2
 No. of unique centers     1

      Symmetry unique atoms

     1


            XYZ format geometry
            -------------------
     2
 geometry
 H                     0.00000000     0.00000000    -1.00244480
 H                     0.00000000     0.00000000     1.00244480

                      Basis "ao basis" -> "" (cartesian)
                      -----
  H (Hydrogen)
  ------------
            Exponent  Coefficients 
       -------------- ---------------------------------------------------------
  1 S  1.87311370E+01  0.033495
  1 S  2.82539370E+00  0.234727
  1 S  6.40121700E-01  0.813757

  2 S  1.61277800E-01  1.000000



 Summary of "ao basis" -> "" (cartesian)
 ------------------------------------------------------------------------------
       Tag                 Description            Shells   Functions and Types
 ---------------- ------------------------------  ------  ---------------------
 H                           6-31g                   2        2   2s



                                NWChem WFN1 Module
                                ------------------



          No. of electrons :     2
           Alpha electrons :     2
            Beta electrons :     0
          Charge           :     0
          Spin multiplicity:     3

 HvD: wfn1_inpdft
 HvD: nquad_task =                     1
 HvD: iangquad   =                     0
 HvD: gridtype   = user      
 HvD: leb        =  T
 HvD: radgrid    = murakn    
 HvD: trunc_neigh=  T
 HvD: lssw       =  T
 HvD: whichssw   = erf1    
 HvD: mxnrad     =                     0
 HvD: mxnang     =                     0
 HVD: wfn1: movecs_in  = atomic                                                                                                                                                                                                                                                          
 HVD: wfn1: movecs_out = ./wfn1_dat.movecs                                                                                                                                                                                                                                               

      Superposition of Atomic Density Guess
      -------------------------------------

 Sum of atomic energies:          -0.99646508

      Non-variational initial energy
      ------------------------------

 Total energy =      -0.693638
 1-e energy   =      -1.523805
 2-e energy   =       0.566223
 HOMO         =      -0.266951
 LUMO         =      -0.106797

 iteration              energy           error
 ---------              ------           -----
         0         -0.97454618        0.080000
         1         -0.97538094        0.080000
         2         -0.97542053        0.080000
         3         -0.97638823        0.080000
         4         -0.97743924        0.080000
         5         -0.97806530        0.080000
         6         -0.97820942        0.080000
         7         -0.97872723        0.080000
         8         -0.98054499        0.080000
         9         -0.98079776        0.080000
        10         -0.98119844        0.080000
        11         -0.98164777        0.080000
        12         -0.98194237        0.080000
        13         -0.98266910        0.080000
        14         -0.98392443        0.080000
        15         -0.98470492        0.080000
        16         -0.98554374        0.080000
        17         -0.98562553        0.080000
        18         -0.98579331        0.080000
        19         -0.98606262        0.080000
        20         -0.98616897        0.080000
        21         -0.98620192        0.069893
        22         -0.98626923        0.059915
        23         -0.98627012        0.059915
        24         -0.98629134        0.059915
        25         -0.98629180        0.043189
        26         -0.98631513        0.043189
        27         -0.98633635        0.043189
        28         -0.98633834        0.043189
        29         -0.98637250        0.038476
        30         -0.98640265        0.038476
        31         -0.98642924        0.038476
        32         -0.98643434        0.029383
        33         -0.98643619        0.029383
        34         -0.98643744        0.026176
        35         -0.98644264        0.016175
        36         -0.98644570        0.016175
        37         -0.98644646        0.013866
        38         -0.98644647        0.013866
        39         -0.98645171        0.013866
        40         -0.98645624        0.012117
        41         -0.98645790        0.012117
        42         -0.98646142        0.012117
        43         -0.98646148        0.010795
        44         -0.98646291        0.010795
        45         -0.98646326        0.010795
        46         -0.98646403        0.008086
        47         -0.98646405        0.007204
        48         -0.98646426        0.007204
        49         -0.98646511        0.006175
        50         -0.98646572        0.005397
        51         -0.98646603        0.003890
        52         -0.98646616        0.003335
        53         -0.98646620        0.003335
        54         -0.98646621        0.003335
        55         -0.98646638        0.002021
        56         -0.98646639        0.001801
        57         -0.98646640        0.001544
        58         -0.98646641        0.001323
        59         -0.98646641        0.000802
        60         -0.98646643        0.000802
        61         -0.98646644        0.000802
        62         -0.98646645        0.000802
        63         -0.98646645        0.000802
        64         -0.98646646        0.000688
        65         -0.98646646        0.000637
        66         -0.98646646        0.000546
        67         -0.98646647        0.000468
        68         -0.98646647        0.000468
        69         -0.98646647        0.000468
        70         -0.98646647        0.000401
        71         -0.98646647        0.000357
        72         -0.98646647        0.000357
        73         -0.98646648        0.000306
        74         -0.98646648        0.000306
        75         -0.98646648        0.000268
        76         -0.98646648        0.000268
        77         -0.98646648        0.000268
        78         -0.98646648        0.000268
        79         -0.98646648        0.000234
        80         -0.98646648        0.000212
        81         -0.98646648        0.000182
        82         -0.98646648        0.000182
        83         -0.98646648        0.000182
        84         -0.98646648        0.000182
        85         -0.98646648        0.000156
        86         -0.98646648        0.000100
        87         -0.98646648        0.000086
        88         -0.98646648        0.000074
        89         -0.98646648        0.000063
        90         -0.98646648        0.000063
        91         -0.98646648        0.000054
        92         -0.98646648        0.000054
        93         -0.98646648        0.000047
        94         -0.98646648        0.000047
        95         -0.98646648        0.000047
        96         -0.98646648        0.000041
        97         -0.98646648        0.000037
        98         -0.98646648        0.000037
        99         -0.98646648        0.000032
       100         -0.98646648        0.000032
       101         -0.98646648        0.000032
       102         -0.98646648        0.000032
       103         -0.98646648        0.000032
       104         -0.98646648        0.000028
       105         -0.98646648        0.000021
       106         -0.98646648        0.000015
       107         -0.98646648        0.000013
       108         -0.98646648        0.000011
       109         -0.98646648        0.000011
       110         -0.98646648        0.000010
       111         -0.98646648        0.000010
       112         -0.98646648        0.000009
       113         -0.98646648        0.000009
       114         -0.98646648        0.000007
       115         -0.98646648        0.000005
       116         -0.98646648        0.000004
       117         -0.98646648        0.000004
       118         -0.98646648        0.000003
       119         -0.98646648        0.000002
       120         -0.98646648        0.000002
       121         -0.98646648        0.000002
       122         -0.98646648        0.000002
       123         -0.98646648        0.000001

 Reached Convergence

 WFN1                     :
 --------------------------
 Total WFN1 energy  =          -0.9864664805
 1-Electron energy  =          -1.5014432881
 2-Electron energy  =           0.2510334731
 Correlation energy =           0.0000000000
 DFT XC energy      =           0.0000000000
 Entropy energy     =           0.0000000000
 Nuclear energy     =           0.2639433345

 conventional Hartree-Fock:
 --------------------------
 Total SCF energy  =          -0.9864664805
 2-Electron energy =           0.2510334731

                WFN1 Final Natural orbital energies and occupations
                ---------------------------------------------------

              Alpha       Beta            Alpha       Beta  
            --------    --------        --------    --------
       1      0.0000      0.0000          1.0000      0.0000
       2      0.0000      0.0000          1.0000      0.0000
       3      0.0000      0.0000          0.0000      0.0000
       4      0.0000      0.0000          0.0000      0.0000

             WFN1 Final Correlation function energies and occupations
             --------------------------------------------------------

              Alpha       Beta            Alpha       Beta  
            --------    --------        --------    --------
       1      0.0000      0.0000          1.0000      0.0000
       2      0.0000      0.0000          1.0000      0.0000
       3      0.0000      0.0000          0.0000      0.0000
       4      0.0000      0.0000          0.0000      0.0000

                WFN1 Final alpha-alpha 2-matrix occupation numbers
                --------------------------------------------------


 global array: g_momo1[1:4,1:4],  handle: -990 

            1           2           3           4  
       ----------- ----------- ----------- -----------
   1       0.00000     1.00000     0.00000     0.00000
   2       1.00000     0.00000     0.00000     0.00000
   3       0.00000     0.00000     0.00000     0.00000
   4       0.00000     0.00000     0.00000    -0.00000

                 WFN1 Final beta-beta 2-matrix occupation numbers
                 ------------------------------------------------


 global array: g_momo2[1:4,1:4],  handle: -989 

            1           2           3           4  
       ----------- ----------- ----------- -----------
   1       0.00000     0.00000     0.00000     0.00000
   2       0.00000     0.00000     0.00000     0.00000
   3       0.00000     0.00000     0.00000     0.00000
   4       0.00000     0.00000     0.00000     0.00000

                  WFN1 Final alpha Correlation Function Analysis
                  ----------------------------------------------


 global array: Ca[1:4,1:4],  handle: -977 

                     1                       2                       3                       4  
       ----------------------- ----------------------- ----------------------- -----------------------
   1       0.58822,    0.69698    -0.25818,   -0.31868    -0.00000,    0.00000     0.00000,    0.00000
   2      -0.40997,    0.01173    -0.91199,    0.00781     0.00000,    0.00000     0.00000,    0.00000
   3       0.00000,    0.00000     0.00000,   -0.00000     0.54262,    0.53417     0.45868,    0.45809
   4      -0.00000,    0.00000    -0.00000,    0.00000     0.39683,    0.51260    -0.46175,   -0.60544

                   WFN1 Final beta Correlation Function Analysis
                   ---------------------------------------------


 global array: Cb[1:4,1:4],  handle: -976 

                     1                       2                       3                       4  
       ----------------------- ----------------------- ----------------------- -----------------------
   1       0.59661,    0.67771    -0.30454,   -0.29618    -0.01451,   -0.03337     0.01693,    0.05184
   2      -0.42162,   -0.03714    -0.90397,   -0.01265     0.04153,   -0.00683     0.00954,   -0.04086
   3      -0.00847,    0.02097     0.01102,    0.04415     0.56309,    0.46902     0.52664,    0.42780
   4       0.06066,    0.03778     0.00601,   -0.01025     0.35760,    0.57617    -0.39557,   -0.61516

                     WFN1 Final Alpha Natural Orbital Analysis
                     -----------------------------------------

 Vector    1  Occ=1.000000D+00  E= 0.000000D+00
              MO Center=  0.0D+00,  0.0D+00,  5.2D-02, r^2= 1.7D+00
   Bfn.  Coefficient  Atom+Function         Bfn.  Coefficient  Atom+Function  
  ----- ------------  ---------------      ----- ------------  ---------------
     4     -0.431013  2 H  s                  2     -0.403722  1 H  s          
     3     -0.300075  2 H  s                  1     -0.283958  1 H  s          

 Vector    2  Occ=1.000000D+00  E= 0.000000D+00
              MO Center=  0.0D+00,  0.0D+00, -5.2D-02, r^2= 2.0D+00
   Bfn.  Coefficient  Atom+Function         Bfn.  Coefficient  Atom+Function  
  ----- ------------  ---------------      ----- ------------  ---------------
     2      0.554031  1 H  s                  4     -0.533076  2 H  s          
     1      0.328330  1 H  s                  3     -0.313668  2 H  s          

 Vector    3  Occ=1.014420D-14  E= 0.000000D+00
              MO Center=  0.0D+00,  0.0D+00,  3.7D-02, r^2= 2.0D+00
   Bfn.  Coefficient  Atom+Function         Bfn.  Coefficient  Atom+Function  
  ----- ------------  ---------------      ----- ------------  ---------------
     3      0.906532  2 H  s                  1      0.874497  1 H  s          
     4     -0.724183  2 H  s                  2     -0.688069  1 H  s          

 Vector    4  Occ=6.044622D-15  E= 0.000000D+00
              MO Center=  0.0D+00,  0.0D+00, -3.7D-02, r^2= 2.7D+00
   Bfn.  Coefficient  Atom+Function         Bfn.  Coefficient  Atom+Function  
  ----- ------------  ---------------      ----- ------------  ---------------
     2      1.036016  1 H  s                  4     -1.011101  2 H  s          
     1     -0.923651  1 H  s                  3      0.892232  2 H  s          


                     WFN1 Final Beta Natural Orbital Analysis
                     ----------------------------------------

 Vector    1  Occ=0.000000D+00  E= 0.000000D+00
              MO Center=  0.0D+00,  0.0D+00,  7.0D-02, r^2= 1.8D+00
   Bfn.  Coefficient  Atom+Function         Bfn.  Coefficient  Atom+Function  
  ----- ------------  ---------------      ----- ------------  ---------------
     2     -0.519166  1 H  s                  4     -0.462420  2 H  s          
     3     -0.255954  2 H  s                  1     -0.129524  1 H  s          

 Vector    2  Occ=0.000000D+00  E= 0.000000D+00
              MO Center=  0.0D+00,  0.0D+00, -7.9D-02, r^2= 2.1D+00
   Bfn.  Coefficient  Atom+Function         Bfn.  Coefficient  Atom+Function  
  ----- ------------  ---------------      ----- ------------  ---------------
     2      0.653136  1 H  s                  4     -0.536299  2 H  s          
     3     -0.315133  2 H  s                  1      0.230350  1 H  s          

 Vector    3  Occ=0.000000D+00  E= 0.000000D+00
              MO Center=  0.0D+00,  0.0D+00, -2.2D-02, r^2= 1.9D+00
   Bfn.  Coefficient  Atom+Function         Bfn.  Coefficient  Atom+Function  
  ----- ------------  ---------------      ----- ------------  ---------------
     1      0.935798  1 H  s                  3      0.896799  2 H  s          
     4     -0.682586  2 H  s                  2     -0.625650  1 H  s          

 Vector    4  Occ=0.000000D+00  E= 0.000000D+00
              MO Center=  0.0D+00,  0.0D+00,  3.2D-02, r^2= 2.6D+00
   Bfn.  Coefficient  Atom+Function         Bfn.  Coefficient  Atom+Function  
  ----- ------------  ---------------      ----- ------------  ---------------
     4     -1.024371  2 H  s                  2      0.963925  1 H  s          
     1     -0.927768  1 H  s                  3      0.915008  2 H  s          


 Task  times  cpu:       12.8s     wall:       17.6s
 Summary of allocated global arrays
-----------------------------------
  No active global arrays



                         GA Statistics for process    0
                         ------------------------------

       create   destroy   get      put      acc     scatter   gather  read&inc
calls:   44       44     7.43e+06 2.57e+04 2.04e+04    0        0       11     
number of processes/call 1.00e+00 1.00e+00 1.00e+00 0.00e+00 0.00e+00
bytes total:             9.55e+08 4.54e+06 3.24e+06 0.00e+00 0.00e+00 8.80e+01
bytes remote:            0.00e+00 0.00e+00 0.00e+00 0.00e+00 0.00e+00 0.00e+00
Max memory consumed for GA by this process: 10624 bytes
MA_summarize_allocated_blocks: starting scan ...
MA_summarize_allocated_blocks: scan completed: 0 heap blocks, 0 stack blocks
MA usage statistics:

	allocation statistics:
					      heap	     stack
					      ----	     -----
	current number of blocks	         0	         0
	maximum number of blocks	        19	        17
	current total bytes		         0	         0
	maximum total bytes		   3204360	  22508648
	maximum total K-bytes		      3205	     22509
	maximum total M-bytes		         4	        23


                                NWChem Input Module
                                -------------------





                                     CITATION
                                     --------
                Please cite the following reference when publishing
                           results obtained with NWChem:

                 M. Valiev, E.J. Bylaska, N. Govind, K. Kowalski,
              T.P. Straatsma, H.J.J. van Dam, D. Wang, J. Nieplocha,
                        E. Apra, T.L. Windus, W.A. de Jong
                 "NWChem: a comprehensive and scalable open-source
                  solution for large scale molecular simulations"
                      Comput. Phys. Commun. 181, 1477 (2010)
                           doi:10.1016/j.cpc.2010.04.018

                                      AUTHORS
                                      -------
          E. Apra, E. J. Bylaska, W. A. de Jong, N. Govind, K. Kowalski,
       T. P. Straatsma, M. Valiev, H. J. J. van Dam, D. Wang, T. L. Windus,
        J. Hammond, J. Autschbach, K. Bhaskaran-Nair, J. Brabec, K. Lopata,
    S. A. Fischer, S. Krishnamoorthy, M. Jacquelin, W. Ma, M. Klemm, O. Villa,
      Y. Chen, V. Anisimov, F. Aquino, S. Hirata, M. T. Hackler, V. Konjkov,
      T. Risthaus, M. Malagoli, A. Marenich, A. Otero-de-la-Roza, J. Mullin,
        P. Nichols, R. Peverati, J. Pittner, Y. Zhao, P.-D. Fan, A. Fonari,
       M. Williamson, R. J. Harrison, J. R. Rehr, M. Dupuis, D. Silverstein,
    D. M. A. Smith, J. Nieplocha, V. Tipparaju, M. Krishnan, B. E. Van Kuiken,
        A. Vazquez-Mayagoitia, L. Jensen, M. Swart, Q. Wu, T. Van Voorhis,
     A. A. Auer, M. Nooijen, L. D. Crosby, E. Brown, G. Cisneros, G. I. Fann,
   H. Fruchtl, J. Garza, K. Hirao, R. A. Kendall, J. A. Nichols, K. Tsemekhman,
    K. Wolinski, J. Anchell, D. E. Bernholdt, P. Borowski, T. Clark, D. Clerc,
   H. Dachsel, M. J. O. Deegan, K. Dyall, D. Elwood, E. Glendening, M. Gutowski,
   A. C. Hess, J. Jaffe, B. G. Johnson, J. Ju, R. Kobayashi, R. Kutteh, Z. Lin,
   R. Littlefield, X. Long, B. Meng, T. Nakajima, S. Niu, L. Pollack, M. Rosing,
   K. Glaesemann, G. Sandrone, M. Stave, H. Taylor, G. Thomas, J. H. van Lenthe,
                               A. T. Wong, Z. Zhang.

 Total times  cpu:       12.8s     wall:       17.6s
