 argument  1 = input-wf.nw



============================== echo of input deck ==============================
echo
start wfn1_dat
geometry units au noautoz
  H 0 0 -4.09434600000000000000
  H 0 0  4.09434600000000000000
  symmetry cs
end
basis
  H library 6-31g
end
set wfn1:input_vectors "atomic"
set wfn1:solver "monte-carlo"
set wfn1:print_error F
set wfn1:t_initial 0.1
set wfn1:nopen 2
#set wfn1:corr_expr "wfn1_mx"
set wfn1:corr_expr "wfn1c"
set wfn1:t_bath 0.0
set wfn1:maxit  20000
task wfn1 energy
================================================================================


                                         
                                         


              Northwest Computational Chemistry Package (NWChem) 6.8
              ------------------------------------------------------


                    Environmental Molecular Sciences Laboratory
                       Pacific Northwest National Laboratory
                                Richland, WA 99352

                              Copyright (c) 1994-2015
                       Pacific Northwest National Laboratory
                            Battelle Memorial Institute

             NWChem is an open-source computational chemistry package
                        distributed under the terms of the
                      Educational Community License (ECL) 2.0
             A copy of the license is included with this distribution
                              in the LICENSE.TXT file

                                  ACKNOWLEDGMENT
                                  --------------

            This software and its documentation were developed at the
            EMSL at Pacific Northwest National Laboratory, a multiprogram
            national laboratory, operated for the U.S. Department of Energy
            by Battelle under Contract Number DE-AC05-76RL01830. Support
            for this work was provided by the Department of Energy Office
            of Biological and Environmental Research, Office of Basic
            Energy Sciences, and the Office of Advanced Scientific Computing.


           Job information
           ---------------

    hostname        = erato
    program         = ../../../bin/LINUX64/nwchem
    date            = Sat Mar  6 01:42:08 2021

    compiled        = Sat_Mar_06_01:07:04_2021
    source          = /home/hvandam/nwchem-1-wfn1
    nwchem branch   = Development
    nwchem revision = nwchem_on_git-124-gad72d19fff205e319ffbbf2bca37a04ded6ad57b
    ga revision     = nwchem_on_git-124-gad72d19
    use scalapack   = F
    input           = input-wf.nw
    prefix          = wfn1_dat.
    data base       = ./wfn1_dat.db
    status          = startup
    nproc           =        1
    time left       =     -1s



           Memory information
           ------------------

    heap     =   13107200 doubles =    100.0 Mbytes
    stack    =   13107197 doubles =    100.0 Mbytes
    global   =   26214400 doubles =    200.0 Mbytes (distinct from heap & stack)
    total    =   52428797 doubles =    400.0 Mbytes
    verify   = yes
    hardfail = no 


           Directory information
           ---------------------

  0 permanent = .
  0 scratch   = .




                                NWChem Input Module
                                -------------------


 Turning off AUTOSYM since
 SYMMETRY directive was detected!



                             Geometry "geometry" -> ""
                             -------------------------

 Output coordinates in a.u. (scale by  1.000000000 to convert to a.u.)

  No.       Tag          Charge          X              Y              Z
 ---- ---------------- ---------- -------------- -------------- --------------
    1 H                    1.0000     0.00000000     0.00000000    -4.09434600
    2 H                    1.0000     0.00000000     0.00000000     4.09434600

      Atomic Mass 
      ----------- 

      H                  1.007825


 Effective nuclear repulsion energy (a.u.)       0.1221196255

            Nuclear Dipole moment (a.u.) 
            ----------------------------
        X                 Y               Z
 ---------------- ---------------- ----------------
     0.0000000000     0.0000000000     0.0000000000

      Symmetry information
      --------------------

 Group name             Cs        
 Group number              2
 Group order               2
 No. of unique centers     1

      Symmetry unique atoms

     1


            XYZ format geometry
            -------------------
     2
 geometry
 H                     0.00000000     0.00000000    -2.16663475
 H                     0.00000000     0.00000000     2.16663475

                      Basis "ao basis" -> "" (cartesian)
                      -----
  H (Hydrogen)
  ------------
            Exponent  Coefficients 
       -------------- ---------------------------------------------------------
  1 S  1.87311370E+01  0.033495
  1 S  2.82539370E+00  0.234727
  1 S  6.40121700E-01  0.813757

  2 S  1.61277800E-01  1.000000



 Summary of "ao basis" -> "" (cartesian)
 ------------------------------------------------------------------------------
       Tag                 Description            Shells   Functions and Types
 ---------------- ------------------------------  ------  ---------------------
 H                           6-31g                   2        2   2s



                                NWChem WFN1 Module
                                ------------------



          No. of electrons :     2
           Alpha electrons :     2
            Beta electrons :     0
          Charge           :     0
          Spin multiplicity:     3

 HvD: wfn1_inpdft
 HvD: nquad_task =                     1
 HvD: iangquad   =                     0
 HvD: gridtype   = user      
 HvD: leb        =  T
 HvD: radgrid    = murakn    
 HvD: trunc_neigh=  T
 HvD: lssw       =  T
 HvD: whichssw   = erf1    
 HvD: mxnrad     =                     0
 HvD: mxnang     =                     0
 HVD: wfn1: movecs_in  = atomic                                                                                                                                                                                                                                                          
 HVD: wfn1: movecs_out = ./wfn1_dat.movecs                                                                                                                                                                                                                                               

      Superposition of Atomic Density Guess
      -------------------------------------

 Sum of atomic energies:          -0.99646508

      Non-variational initial energy
      ------------------------------

 Total energy =      -0.682111
 1-e energy   =      -1.240705
 2-e energy   =       0.436475
 HOMO         =      -0.192970
 LUMO         =      -0.189401

 iteration              energy           error
 ---------              ------           -----
         0         -0.98469672        0.080000
         1         -0.98472305        0.080000
         2         -0.98629414        0.080000
         3         -0.98691553        0.080000
         4         -0.98848908        0.080000
         5         -0.98858203        0.080000
         6         -0.98907317        0.080000
         7         -0.98991950        0.080000
         8         -0.99049228        0.080000
         9         -0.99138172        0.080000
        10         -0.99157625        0.080000
        11         -0.99199160        0.080000
        12         -0.99231572        0.080000
        13         -0.99269319        0.080000
        14         -0.99271317        0.080000
        15         -0.99311609        0.080000
        16         -0.99377035        0.080000
        17         -0.99386341        0.080000
        18         -0.99430722        0.080000
        19         -0.99463732        0.080000
        20         -0.99492271        0.080000
        21         -0.99522692        0.080000
        22         -0.99538055        0.080000
        23         -0.99547818        0.080000
        24         -0.99551068        0.080000
        25         -0.99561176        0.080000
        26         -0.99584625        0.080000
        27         -0.99588314        0.080000
        28         -0.99622468        0.080000
        29         -0.99627395        0.080000
        30         -0.99630736        0.080000
        31         -0.99631064        0.058766
        32         -0.99633455        0.043184
        33         -0.99634418        0.037019
        34         -0.99637789        0.031734
        35         -0.99639403        0.031734
        36         -0.99641723        0.031734
        37         -0.99642273        0.031734
        38         -0.99642795        0.031734
        39         -0.99643212        0.022875
        40         -0.99643762        0.022875
        41         -0.99643904        0.021178
        42         -0.99644369        0.021178
        43         -0.99644380        0.018507
        44         -0.99645022        0.016173
        45         -0.99645464        0.013864
        46         -0.99645739        0.009994
        47         -0.99645756        0.009994
        48         -0.99645781        0.009994
        49         -0.99645819        0.009994
        50         -0.99645931        0.009994
        51         -0.99646062        0.009994
        52         -0.99646130        0.008567
        53         -0.99646222        0.008085
        54         -0.99646293        0.006931
        55         -0.99646325        0.006931
        56         -0.99646345        0.005942
        57         -0.99646366        0.005942
        58         -0.99646385        0.005192
        59         -0.99646394        0.005192
        60         -0.99646400        0.005192
        61         -0.99646402        0.005192
        62         -0.99646425        0.003816
        63         -0.99646449        0.003465
        64         -0.99646468        0.003465
        65         -0.99646472        0.002498
        66         -0.99646473        0.002183
        67         -0.99646477        0.002183
        68         -0.99646478        0.002183
        69         -0.99646490        0.002183
        70         -0.99646492        0.002183
        71         -0.99646499        0.002183
        72         -0.99646503        0.001871
        73         -0.99646504        0.001871
        74         -0.99646506        0.001485
        75         -0.99646507        0.001485
        76         -0.99646507        0.001298
        77         -0.99646511        0.001298
        78         -0.99646512        0.001134
        79         -0.99646513        0.000701
        80         -0.99646513        0.000701
        81         -0.99646513        0.000701
        82         -0.99646513        0.000701
        83         -0.99646513        0.000425
        84         -0.99646513        0.000324
        85         -0.99646514        0.000278
        86         -0.99646514        0.000238
        87         -0.99646514        0.000238
        88         -0.99646514        0.000238
        89         -0.99646514        0.000204
        90         -0.99646514        0.000204
        91         -0.99646514        0.000108
        92         -0.99646514        0.000108
        93         -0.99646514        0.000108
        94         -0.99646514        0.000080
        95         -0.99646514        0.000071
        96         -0.99646514        0.000061
        97         -0.99646514        0.000052
        98         -0.99646514        0.000052
        99         -0.99646514        0.000045
       100         -0.99646514        0.000045
       101         -0.99646514        0.000045
       102         -0.99646514        0.000039
       103         -0.99646514        0.000035
       104         -0.99646514        0.000030
       105         -0.99646514        0.000026
       106         -0.99646514        0.000026
       107         -0.99646514        0.000022
       108         -0.99646514        0.000022
       109         -0.99646514        0.000022
       110         -0.99646514        0.000019
       111         -0.99646514        0.000017
       112         -0.99646514        0.000017
       113         -0.99646514        0.000017
       114         -0.99646514        0.000012
       115         -0.99646514        0.000011
       116         -0.99646514        0.000011
       117         -0.99646514        0.000008
       118         -0.99646514        0.000008
       119         -0.99646514        0.000007
       120         -0.99646514        0.000007
       121         -0.99646514        0.000007
       122         -0.99646514        0.000007
       123         -0.99646514        0.000007
       124         -0.99646514        0.000005
       125         -0.99646514        0.000005
       126         -0.99646514        0.000003
       127         -0.99646514        0.000003
       128         -0.99646514        0.000002
       129         -0.99646514        0.000002
       130         -0.99646514        0.000002
       131         -0.99646514        0.000002
       132         -0.99646514        0.000001
       133         -0.99646514        0.000001
       134         -0.99646514        0.000001
       135         -0.99646514        0.000001
       136         -0.99646514        0.000001

 Reached Convergence

 WFN1                     :
 --------------------------
 Total WFN1 energy  =          -0.9964651390
 1-Electron energy  =          -1.2407050572
 2-Electron energy  =           0.1221202927
 Correlation energy =           0.0000000000
 DFT XC energy      =           0.0000000000
 Entropy energy     =           0.0000000000
 Nuclear energy     =           0.1221196255

 conventional Hartree-Fock:
 --------------------------
 Total SCF energy  =          -0.9964651390
 2-Electron energy =           0.1221202927

                WFN1 Final Natural orbital energies and occupations
                ---------------------------------------------------

              Alpha       Beta            Alpha       Beta  
            --------    --------        --------    --------
       1      0.0000      0.0000          1.0000      0.0000
       2      0.0000      0.0000          1.0000      0.0000
       3      0.0000      0.0000          0.0000      0.0000
       4      0.0000      0.0000          0.0000      0.0000

             WFN1 Final Correlation function energies and occupations
             --------------------------------------------------------

              Alpha       Beta            Alpha       Beta  
            --------    --------        --------    --------
       1      0.0000      0.0000          1.0000      0.0000
       2      0.0000      0.0000          1.0000      0.0000
       3      0.0000      0.0000          0.0000      0.0000
       4      0.0000      0.0000          0.0000      0.0000

                WFN1 Final alpha-alpha 2-matrix occupation numbers
                --------------------------------------------------


 global array: g_momo1[1:4,1:4],  handle: -990 

            1           2           3           4  
       ----------- ----------- ----------- -----------
   1       0.00000     1.00000     0.00000     0.00000
   2       1.00000     0.00000     0.00000     0.00000
   3       0.00000     0.00000    -0.00000     0.00000
   4       0.00000     0.00000     0.00000     0.00000

                 WFN1 Final beta-beta 2-matrix occupation numbers
                 ------------------------------------------------


 global array: g_momo2[1:4,1:4],  handle: -989 

            1           2           3           4  
       ----------- ----------- ----------- -----------
   1       0.00000     0.00000     0.00000     0.00000
   2       0.00000     0.00000     0.00000     0.00000
   3       0.00000     0.00000     0.00000     0.00000
   4       0.00000     0.00000     0.00000     0.00000

                  WFN1 Final alpha Correlation Function Analysis
                  ----------------------------------------------


 global array: Ca[1:4,1:4],  handle: -981 

                     1                       2                       3                       4  
       ----------------------- ----------------------- ----------------------- -----------------------
   1      -0.69832,    0.25587    -0.62788,    0.22946    -0.00000,   -0.00000     0.00000,   -0.00000
   2       0.56520,   -0.35697    -0.62914,    0.39661    -0.00000,    0.00000    -0.00000,   -0.00000
   3      -0.00000,   -0.00000     0.00000,    0.00000    -0.36243,   -0.62739    -0.34526,   -0.59651
   4      -0.00000,   -0.00000    -0.00000,   -0.00000     0.54076,    0.42732    -0.56886,   -0.44875

                   WFN1 Final beta Correlation Function Analysis
                   ---------------------------------------------


 global array: Cb[1:4,1:4],  handle: -980 

                     1                       2                       3                       4  
       ----------------------- ----------------------- ----------------------- -----------------------
   1      -0.68910,    0.23535    -0.64742,    0.21937    -0.01429,   -0.03324    -0.00333,    0.03412
   2       0.56582,   -0.37921    -0.60433,    0.39637    -0.02277,    0.05236     0.06860,    0.07588
   3       0.05404,   -0.03941    -0.04158,    0.05141    -0.35523,   -0.66359    -0.29640,   -0.58031
   4       0.03178,    0.01794    -0.06391,    0.04412     0.53189,    0.38207    -0.60665,   -0.44241

                     WFN1 Final Alpha Natural Orbital Analysis
                     -----------------------------------------

 Vector    1  Occ=1.000000D+00  E= 0.000000D+00
              MO Center=  0.0D+00,  0.0D+00, -3.9D-01, r^2= 5.3D+00
   Bfn.  Coefficient  Atom+Function         Bfn.  Coefficient  Atom+Function  
  ----- ------------  ---------------      ----- ------------  ---------------
     2     -0.511351  1 H  s                  4     -0.426497  2 H  s          
     1     -0.327220  1 H  s                  3     -0.272470  2 H  s          

 Vector    2  Occ=1.000000D+00  E= 0.000000D+00
              MO Center=  0.0D+00,  0.0D+00,  3.9D-01, r^2= 5.4D+00
   Bfn.  Coefficient  Atom+Function         Bfn.  Coefficient  Atom+Function  
  ----- ------------  ---------------      ----- ------------  ---------------
     4      0.510800  2 H  s                  2     -0.425837  1 H  s          
     3      0.329336  2 H  s                  1     -0.275008  1 H  s          

 Vector    3  Occ=2.671776D-15  E= 0.000000D+00
              MO Center=  0.0D+00,  0.0D+00,  3.9D-02, r^2= 5.9D+00
   Bfn.  Coefficient  Atom+Function         Bfn.  Coefficient  Atom+Function  
  ----- ------------  ---------------      ----- ------------  ---------------
     3     -0.896144  2 H  s                  1     -0.880237  1 H  s          
     4      0.815951  2 H  s                  2      0.801351  1 H  s          

 Vector    4  Occ=2.168993D-15  E= 0.000000D+00
              MO Center=  0.0D+00,  0.0D+00, -3.9D-02, r^2= 5.9D+00
   Bfn.  Coefficient  Atom+Function         Bfn.  Coefficient  Atom+Function  
  ----- ------------  ---------------      ----- ------------  ---------------
     1     -0.898486  1 H  s                  3      0.882621  2 H  s          
     2      0.824546  1 H  s                  4     -0.810102  2 H  s          


                     WFN1 Final Beta Natural Orbital Analysis
                     ----------------------------------------

 Vector    1  Occ=0.000000D+00  E= 0.000000D+00
              MO Center=  0.0D+00,  0.0D+00,  1.0D-01, r^2= 5.6D+00
   Bfn.  Coefficient  Atom+Function         Bfn.  Coefficient  Atom+Function  
  ----- ------------  ---------------      ----- ------------  ---------------
     2     -0.590561  1 H  s                  4     -0.497030  2 H  s          
     3     -0.290879  2 H  s                  1     -0.138207  1 H  s          

 Vector    2  Occ=0.000000D+00  E= 0.000000D+00
              MO Center=  0.0D+00,  0.0D+00, -1.1D-01, r^2= 5.6D+00
   Bfn.  Coefficient  Atom+Function         Bfn.  Coefficient  Atom+Function  
  ----- ------------  ---------------      ----- ------------  ---------------
     2     -0.538664  1 H  s                  4      0.488546  2 H  s          
     3      0.261108  2 H  s                  1     -0.248057  1 H  s          

 Vector    3  Occ=0.000000D+00  E= 0.000000D+00
              MO Center=  0.0D+00,  0.0D+00,  8.0D-02, r^2= 5.7D+00
   Bfn.  Coefficient  Atom+Function         Bfn.  Coefficient  Atom+Function  
  ----- ------------  ---------------      ----- ------------  ---------------
     3     -0.926232  2 H  s                  1     -0.898443  1 H  s          
     4      0.782761  2 H  s                  2      0.738529  1 H  s          

 Vector    4  Occ=0.000000D+00  E= 0.000000D+00
              MO Center=  0.0D+00,  0.0D+00, -6.7D-02, r^2= 5.8D+00
   Bfn.  Coefficient  Atom+Function         Bfn.  Coefficient  Atom+Function  
  ----- ------------  ---------------      ----- ------------  ---------------
     1     -0.936463  1 H  s                  3      0.868390  2 H  s          
     4     -0.816349  2 H  s                  2      0.761912  1 H  s          


 Task  times  cpu:       14.1s     wall:       24.3s
 Summary of allocated global arrays
-----------------------------------
  No active global arrays



                         GA Statistics for process    0
                         ------------------------------

       create   destroy   get      put      acc     scatter   gather  read&inc
calls:   44       44     7.93e+06 2.74e+04 2.17e+04    0        0       11     
number of processes/call 1.00e+00 1.00e+00 1.00e+00 0.00e+00 0.00e+00
bytes total:             1.02e+09 4.85e+06 3.46e+06 0.00e+00 0.00e+00 8.80e+01
bytes remote:            0.00e+00 0.00e+00 0.00e+00 0.00e+00 0.00e+00 0.00e+00
Max memory consumed for GA by this process: 10624 bytes
MA_summarize_allocated_blocks: starting scan ...
MA_summarize_allocated_blocks: scan completed: 0 heap blocks, 0 stack blocks
MA usage statistics:

	allocation statistics:
					      heap	     stack
					      ----	     -----
	current number of blocks	         0	         0
	maximum number of blocks	        19	        17
	current total bytes		         0	         0
	maximum total bytes		   3204328	  22508616
	maximum total K-bytes		      3205	     22509
	maximum total M-bytes		         4	        23


                                NWChem Input Module
                                -------------------





                                     CITATION
                                     --------
                Please cite the following reference when publishing
                           results obtained with NWChem:

                 M. Valiev, E.J. Bylaska, N. Govind, K. Kowalski,
              T.P. Straatsma, H.J.J. van Dam, D. Wang, J. Nieplocha,
                        E. Apra, T.L. Windus, W.A. de Jong
                 "NWChem: a comprehensive and scalable open-source
                  solution for large scale molecular simulations"
                      Comput. Phys. Commun. 181, 1477 (2010)
                           doi:10.1016/j.cpc.2010.04.018

                                      AUTHORS
                                      -------
          E. Apra, E. J. Bylaska, W. A. de Jong, N. Govind, K. Kowalski,
       T. P. Straatsma, M. Valiev, H. J. J. van Dam, D. Wang, T. L. Windus,
        J. Hammond, J. Autschbach, K. Bhaskaran-Nair, J. Brabec, K. Lopata,
    S. A. Fischer, S. Krishnamoorthy, M. Jacquelin, W. Ma, M. Klemm, O. Villa,
      Y. Chen, V. Anisimov, F. Aquino, S. Hirata, M. T. Hackler, V. Konjkov,
      T. Risthaus, M. Malagoli, A. Marenich, A. Otero-de-la-Roza, J. Mullin,
        P. Nichols, R. Peverati, J. Pittner, Y. Zhao, P.-D. Fan, A. Fonari,
       M. Williamson, R. J. Harrison, J. R. Rehr, M. Dupuis, D. Silverstein,
    D. M. A. Smith, J. Nieplocha, V. Tipparaju, M. Krishnan, B. E. Van Kuiken,
        A. Vazquez-Mayagoitia, L. Jensen, M. Swart, Q. Wu, T. Van Voorhis,
     A. A. Auer, M. Nooijen, L. D. Crosby, E. Brown, G. Cisneros, G. I. Fann,
   H. Fruchtl, J. Garza, K. Hirao, R. A. Kendall, J. A. Nichols, K. Tsemekhman,
    K. Wolinski, J. Anchell, D. E. Bernholdt, P. Borowski, T. Clark, D. Clerc,
   H. Dachsel, M. J. O. Deegan, K. Dyall, D. Elwood, E. Glendening, M. Gutowski,
   A. C. Hess, J. Jaffe, B. G. Johnson, J. Ju, R. Kobayashi, R. Kutteh, Z. Lin,
   R. Littlefield, X. Long, B. Meng, T. Nakajima, S. Niu, L. Pollack, M. Rosing,
   K. Glaesemann, G. Sandrone, M. Stave, H. Taylor, G. Thomas, J. H. van Lenthe,
                               A. T. Wong, Z. Zhang.

 Total times  cpu:       14.1s     wall:       24.4s
