 argument  1 = input-wf.nw



============================== echo of input deck ==============================
echo
start wfn1_dat
geometry units au noautoz
  H 0 0 -4.14434600000000000000
  H 0 0  4.14434600000000000000
  symmetry cs
end
basis
  H library 6-31g
end
set wfn1:input_vectors "atomic"
set wfn1:solver "monte-carlo"
set wfn1:print_error F
set wfn1:t_initial 0.1
set wfn1:nopen 2
#set wfn1:corr_expr "wfn1_mx"
set wfn1:corr_expr "wfn1c"
set wfn1:t_bath 0.0
set wfn1:maxit  20000
task wfn1 energy
================================================================================


                                         
                                         


              Northwest Computational Chemistry Package (NWChem) 6.8
              ------------------------------------------------------


                    Environmental Molecular Sciences Laboratory
                       Pacific Northwest National Laboratory
                                Richland, WA 99352

                              Copyright (c) 1994-2015
                       Pacific Northwest National Laboratory
                            Battelle Memorial Institute

             NWChem is an open-source computational chemistry package
                        distributed under the terms of the
                      Educational Community License (ECL) 2.0
             A copy of the license is included with this distribution
                              in the LICENSE.TXT file

                                  ACKNOWLEDGMENT
                                  --------------

            This software and its documentation were developed at the
            EMSL at Pacific Northwest National Laboratory, a multiprogram
            national laboratory, operated for the U.S. Department of Energy
            by Battelle under Contract Number DE-AC05-76RL01830. Support
            for this work was provided by the Department of Energy Office
            of Biological and Environmental Research, Office of Basic
            Energy Sciences, and the Office of Advanced Scientific Computing.


           Job information
           ---------------

    hostname        = erato
    program         = ../../../bin/LINUX64/nwchem
    date            = Sat Mar  6 01:42:33 2021

    compiled        = Sat_Mar_06_01:07:04_2021
    source          = /home/hvandam/nwchem-1-wfn1
    nwchem branch   = Development
    nwchem revision = nwchem_on_git-124-gad72d19fff205e319ffbbf2bca37a04ded6ad57b
    ga revision     = nwchem_on_git-124-gad72d19
    use scalapack   = F
    input           = input-wf.nw
    prefix          = wfn1_dat.
    data base       = ./wfn1_dat.db
    status          = startup
    nproc           =        1
    time left       =     -1s



           Memory information
           ------------------

    heap     =   13107194 doubles =    100.0 Mbytes
    stack    =   13107199 doubles =    100.0 Mbytes
    global   =   26214400 doubles =    200.0 Mbytes (distinct from heap & stack)
    total    =   52428793 doubles =    400.0 Mbytes
    verify   = yes
    hardfail = no 


           Directory information
           ---------------------

  0 permanent = .
  0 scratch   = .




                                NWChem Input Module
                                -------------------


 Turning off AUTOSYM since
 SYMMETRY directive was detected!



                             Geometry "geometry" -> ""
                             -------------------------

 Output coordinates in a.u. (scale by  1.000000000 to convert to a.u.)

  No.       Tag          Charge          X              Y              Z
 ---- ---------------- ---------- -------------- -------------- --------------
    1 H                    1.0000     0.00000000     0.00000000    -4.14434600
    2 H                    1.0000     0.00000000     0.00000000     4.14434600

      Atomic Mass 
      ----------- 

      H                  1.007825


 Effective nuclear repulsion energy (a.u.)       0.1206462974

            Nuclear Dipole moment (a.u.) 
            ----------------------------
        X                 Y               Z
 ---------------- ---------------- ----------------
     0.0000000000     0.0000000000     0.0000000000

      Symmetry information
      --------------------

 Group name             Cs        
 Group number              2
 Group order               2
 No. of unique centers     1

      Symmetry unique atoms

     1


            XYZ format geometry
            -------------------
     2
 geometry
 H                     0.00000000     0.00000000    -2.19309362
 H                     0.00000000     0.00000000     2.19309362

                      Basis "ao basis" -> "" (cartesian)
                      -----
  H (Hydrogen)
  ------------
            Exponent  Coefficients 
       -------------- ---------------------------------------------------------
  1 S  1.87311370E+01  0.033495
  1 S  2.82539370E+00  0.234727
  1 S  6.40121700E-01  0.813757

  2 S  1.61277800E-01  1.000000



 Summary of "ao basis" -> "" (cartesian)
 ------------------------------------------------------------------------------
       Tag                 Description            Shells   Functions and Types
 ---------------- ------------------------------  ------  ---------------------
 H                           6-31g                   2        2   2s



                                NWChem WFN1 Module
                                ------------------



          No. of electrons :     2
           Alpha electrons :     2
            Beta electrons :     0
          Charge           :     0
          Spin multiplicity:     3

 HvD: wfn1_inpdft
 HvD: nquad_task =                     1
 HvD: iangquad   =                     0
 HvD: gridtype   = user      
 HvD: leb        =  T
 HvD: radgrid    = murakn    
 HvD: trunc_neigh=  T
 HvD: lssw       =  T
 HvD: whichssw   = erf1    
 HvD: mxnrad     =                     0
 HvD: mxnang     =                     0
 HVD: wfn1: movecs_in  = atomic                                                                                                                                                                                                                                                          
 HVD: wfn1: movecs_out = ./wfn1_dat.movecs                                                                                                                                                                                                                                               

      Superposition of Atomic Density Guess
      -------------------------------------

 Sum of atomic energies:          -0.99646508

      Non-variational initial energy
      ------------------------------

 Total energy =      -0.682111
 1-e energy   =      -1.237758
 2-e energy   =       0.435002
 HOMO         =      -0.192784
 LUMO         =      -0.189588

 iteration              energy           error
 ---------              ------           -----
         0         -0.98469697        0.080000
         1         -0.98491932        0.080000
         2         -0.98583223        0.080000
         3         -0.98597849        0.080000
         4         -0.98778806        0.080000
         5         -0.98801755        0.080000
         6         -0.98872127        0.080000
         7         -0.98914127        0.080000
         8         -0.99005628        0.080000
         9         -0.99043961        0.080000
        10         -0.99139006        0.080000
        11         -0.99152937        0.080000
        12         -0.99175538        0.080000
        13         -0.99239691        0.080000
        14         -0.99335788        0.080000
        15         -0.99366498        0.080000
        16         -0.99513384        0.080000
        17         -0.99530096        0.080000
        18         -0.99540845        0.080000
        19         -0.99541720        0.080000
        20         -0.99586706        0.080000
        21         -0.99591630        0.080000
        22         -0.99618532        0.080000
        23         -0.99623436        0.080000
        24         -0.99625732        0.074046
        25         -0.99634554        0.063475
        26         -0.99638689        0.054413
        27         -0.99639171        0.032983
        28         -0.99640251        0.032983
        29         -0.99642051        0.028274
        30         -0.99642318        0.024708
        31         -0.99642918        0.024708
        32         -0.99643154        0.024708
        33         -0.99644764        0.024708
        34         -0.99644812        0.017811
        35         -0.99645491        0.017811
        36         -0.99645685        0.017811
        37         -0.99645748        0.013602
        38         -0.99646010        0.012117
        39         -0.99646159        0.010387
        40         -0.99646224        0.007487
        41         -0.99646229        0.006419
        42         -0.99646229        0.006419
        43         -0.99646278        0.006419
        44         -0.99646344        0.006419
        45         -0.99646388        0.006419
        46         -0.99646411        0.006419
        47         -0.99646447        0.005502
        48         -0.99646452        0.004367
        49         -0.99646456        0.003743
        50         -0.99646465        0.003743
        51         -0.99646473        0.003743
        52         -0.99646477        0.003743
        53         -0.99646496        0.003209
        54         -0.99646504        0.002914
        55         -0.99646506        0.002914
        56         -0.99646510        0.002914
        57         -0.99646521        0.002914
        58         -0.99646525        0.002498
        59         -0.99646527        0.002269
        60         -0.99646529        0.001945
        61         -0.99646529        0.001945
        62         -0.99646530        0.001402
        63         -0.99646530        0.001402
        64         -0.99646531        0.001402
        65         -0.99646532        0.001402
        66         -0.99646539        0.001225
        67         -0.99646539        0.001225
        68         -0.99646540        0.000936
        69         -0.99646540        0.000818
        70         -0.99646540        0.000818
        71         -0.99646541        0.000496
        72         -0.99646541        0.000306
        73         -0.99646541        0.000306
        74         -0.99646541        0.000263
        75         -0.99646541        0.000263
        76         -0.99646541        0.000263
        77         -0.99646541        0.000229
        78         -0.99646541        0.000229
        79         -0.99646541        0.000145
        80         -0.99646541        0.000145
        81         -0.99646541        0.000126
        82         -0.99646541        0.000126
        83         -0.99646541        0.000126
        84         -0.99646541        0.000093
        85         -0.99646541        0.000083
        86         -0.99646542        0.000071
        87         -0.99646542        0.000071
        88         -0.99646542        0.000071
        89         -0.99646542        0.000061
        90         -0.99646542        0.000054
        91         -0.99646542        0.000039
        92         -0.99646542        0.000039
        93         -0.99646542        0.000039
        94         -0.99646542        0.000039
        95         -0.99646542        0.000028
        96         -0.99646542        0.000028
        97         -0.99646542        0.000028
        98         -0.99646542        0.000018
        99         -0.99646542        0.000016
       100         -0.99646542        0.000016
       101         -0.99646542        0.000016
       102         -0.99646542        0.000014
       103         -0.99646542        0.000012
       104         -0.99646542        0.000009
       105         -0.99646542        0.000008
       106         -0.99646542        0.000008
       107         -0.99646542        0.000007
       108         -0.99646542        0.000006
       109         -0.99646542        0.000006
       110         -0.99646542        0.000005
       111         -0.99646542        0.000004
       112         -0.99646542        0.000003
       113         -0.99646542        0.000003
       114         -0.99646542        0.000003
       115         -0.99646542        0.000003
       116         -0.99646542        0.000003
       117         -0.99646542        0.000003
       118         -0.99646542        0.000002
       119         -0.99646542        0.000002
       120         -0.99646542        0.000002
       121         -0.99646542        0.000002
       122         -0.99646542        0.000001
       123         -0.99646542        0.000001
       124         -0.99646542        0.000001

 Reached Convergence

 WFN1                     :
 --------------------------
 Total WFN1 energy  =          -0.9964654153
 1-Electron energy  =          -1.2377586255
 2-Electron energy  =           0.1206469128
 Correlation energy =           0.0000000000
 DFT XC energy      =           0.0000000000
 Entropy energy     =           0.0000000000
 Nuclear energy     =           0.1206462974

 conventional Hartree-Fock:
 --------------------------
 Total SCF energy  =          -0.9964654153
 2-Electron energy =           0.1206469128

                WFN1 Final Natural orbital energies and occupations
                ---------------------------------------------------

              Alpha       Beta            Alpha       Beta  
            --------    --------        --------    --------
       1      0.0000      0.0000          1.0000      0.0000
       2      0.0000      0.0000          1.0000      0.0000
       3      0.0000      0.0000          0.0000      0.0000
       4      0.0000      0.0000          0.0000      0.0000

             WFN1 Final Correlation function energies and occupations
             --------------------------------------------------------

              Alpha       Beta            Alpha       Beta  
            --------    --------        --------    --------
       1      0.0000      0.0000          1.0000      0.0000
       2      0.0000      0.0000          1.0000      0.0000
       3      0.0000      0.0000          0.0000      0.0000
       4      0.0000      0.0000          0.0000      0.0000

                WFN1 Final alpha-alpha 2-matrix occupation numbers
                --------------------------------------------------


 global array: g_momo1[1:4,1:4],  handle: -990 

            1           2           3           4  
       ----------- ----------- ----------- -----------
   1       0.00000     1.00000     0.00000     0.00000
   2       1.00000     0.00000     0.00000     0.00000
   3       0.00000     0.00000     0.00000     0.00000
   4       0.00000     0.00000     0.00000     0.00000

                 WFN1 Final beta-beta 2-matrix occupation numbers
                 ------------------------------------------------


 global array: g_momo2[1:4,1:4],  handle: -989 

            1           2           3           4  
       ----------- ----------- ----------- -----------
   1       0.00000     0.00000     0.00000     0.00000
   2       0.00000     0.00000     0.00000     0.00000
   3       0.00000     0.00000     0.00000     0.00000
   4       0.00000     0.00000     0.00000     0.00000

                  WFN1 Final alpha Correlation Function Analysis
                  ----------------------------------------------


 global array: Ca[1:4,1:4],  handle: -981 

                     1                       2                       3                       4  
       ----------------------- ----------------------- ----------------------- -----------------------
   1       0.37741,   -0.59569     0.37799,   -0.59987    -0.00000,   -0.00000     0.00000,   -0.00000
   2       0.44645,   -0.55082    -0.44268,    0.54892     0.00000,   -0.00000    -0.00000,   -0.00000
   3      -0.00000,   -0.00000    -0.00000,    0.00000     0.60607,    0.43367     0.54180,    0.38867
   4      -0.00000,    0.00000    -0.00000,    0.00000    -0.65515,    0.12408     0.73239,   -0.13780

                   WFN1 Final beta Correlation Function Analysis
                   ---------------------------------------------


 global array: Cb[1:4,1:4],  handle: -980 

                     1                       2                       3                       4  
       ----------------------- ----------------------- ----------------------- -----------------------
   1       0.37524,   -0.62816     0.34918,   -0.58224     0.03068,    0.00462    -0.00339,    0.05200
   2       0.43999,   -0.52005    -0.47224,    0.55539    -0.01610,    0.01973     0.02095,   -0.05836
   3      -0.00625,    0.01629     0.00991,    0.04684     0.63394,    0.35475     0.59883,    0.33329
   4      -0.01100,   -0.01200     0.07270,    0.00490    -0.68414,    0.05123     0.72180,   -0.05261

                     WFN1 Final Alpha Natural Orbital Analysis
                     -----------------------------------------

 Vector    1  Occ=1.000000D+00  E= 0.000000D+00
              MO Center=  0.0D+00,  0.0D+00,  2.1D-01, r^2= 5.6D+00
   Bfn.  Coefficient  Atom+Function         Bfn.  Coefficient  Atom+Function  
  ----- ------------  ---------------      ----- ------------  ---------------
     4     -0.492812  2 H  s                  2     -0.447795  1 H  s          
     3     -0.315353  2 H  s                  1     -0.286317  1 H  s          

 Vector    2  Occ=1.000000D+00  E= 0.000000D+00
              MO Center=  0.0D+00,  0.0D+00, -2.1D-01, r^2= 5.6D+00
   Bfn.  Coefficient  Atom+Function         Bfn.  Coefficient  Atom+Function  
  ----- ------------  ---------------      ----- ------------  ---------------
     2      0.492237  1 H  s                  4     -0.447162  2 H  s          
     1      0.317370  1 H  s                  3     -0.288537  2 H  s          

 Vector    3  Occ=5.757344D-15  E= 0.000000D+00
              MO Center=  0.0D+00,  0.0D+00, -3.5D-02, r^2= 6.0D+00
   Bfn.  Coefficient  Atom+Function         Bfn.  Coefficient  Atom+Function  
  ----- ------------  ---------------      ----- ------------  ---------------
     1     -0.895539  1 H  s                  3     -0.881153  2 H  s          
     2      0.815760  1 H  s                  4      0.802563  2 H  s          

 Vector    4  Occ=2.400814D-14  E= 0.000000D+00
              MO Center=  0.0D+00,  0.0D+00,  3.5D-02, r^2= 6.0D+00
   Bfn.  Coefficient  Atom+Function         Bfn.  Coefficient  Atom+Function  
  ----- ------------  ---------------      ----- ------------  ---------------
     3      0.897583  2 H  s                  1     -0.883230  1 H  s          
     4     -0.823352  2 H  s                  2      0.810278  1 H  s          


                     WFN1 Final Beta Natural Orbital Analysis
                     ----------------------------------------

 Vector    1  Occ=0.000000D+00  E= 0.000000D+00
              MO Center=  0.0D+00,  0.0D+00,  1.3D-01, r^2= 5.7D+00
   Bfn.  Coefficient  Atom+Function         Bfn.  Coefficient  Atom+Function  
  ----- ------------  ---------------      ----- ------------  ---------------
     4     -0.613456  2 H  s                  2     -0.489624  1 H  s          
     1     -0.254599  1 H  s                  3     -0.158021  2 H  s          

 Vector    2  Occ=0.000000D+00  E= 0.000000D+00
              MO Center=  0.0D+00,  0.0D+00, -1.3D-01, r^2= 5.8D+00
   Bfn.  Coefficient  Atom+Function         Bfn.  Coefficient  Atom+Function  
  ----- ------------  ---------------      ----- ------------  ---------------
     2      0.558674  1 H  s                  4     -0.544695  2 H  s          
     1      0.227458  1 H  s                  3     -0.192022  2 H  s          

 Vector    3  Occ=0.000000D+00  E= 0.000000D+00
              MO Center=  0.0D+00,  0.0D+00, -3.3D-02, r^2= 5.8D+00
   Bfn.  Coefficient  Atom+Function         Bfn.  Coefficient  Atom+Function  
  ----- ------------  ---------------      ----- ------------  ---------------
     1     -0.918982  1 H  s                  3     -0.910414  2 H  s          
     2      0.768694  1 H  s                  4      0.743252  2 H  s          

 Vector    4  Occ=0.000000D+00  E= 0.000000D+00
              MO Center=  0.0D+00,  0.0D+00,  3.2D-02, r^2= 5.9D+00
   Bfn.  Coefficient  Atom+Function         Bfn.  Coefficient  Atom+Function  
  ----- ------------  ---------------      ----- ------------  ---------------
     3      0.934927  2 H  s                  1     -0.896494  1 H  s          
     2      0.788729  1 H  s                  4     -0.734430  2 H  s          


 Task  times  cpu:       12.0s     wall:       16.5s
 Summary of allocated global arrays
-----------------------------------
  No active global arrays



                         GA Statistics for process    0
                         ------------------------------

       create   destroy   get      put      acc     scatter   gather  read&inc
calls:   44       44     7.55e+06 2.61e+04 2.07e+04    0        0       11     
number of processes/call 1.00e+00 1.00e+00 1.00e+00 0.00e+00 0.00e+00
bytes total:             9.71e+08 4.62e+06 3.30e+06 0.00e+00 0.00e+00 8.80e+01
bytes remote:            0.00e+00 0.00e+00 0.00e+00 0.00e+00 0.00e+00 0.00e+00
Max memory consumed for GA by this process: 10624 bytes
MA_summarize_allocated_blocks: starting scan ...
MA_summarize_allocated_blocks: scan completed: 0 heap blocks, 0 stack blocks
MA usage statistics:

	allocation statistics:
					      heap	     stack
					      ----	     -----
	current number of blocks	         0	         0
	maximum number of blocks	        19	        17
	current total bytes		         0	         0
	maximum total bytes		   3204376	  22508632
	maximum total K-bytes		      3205	     22509
	maximum total M-bytes		         4	        23


                                NWChem Input Module
                                -------------------





                                     CITATION
                                     --------
                Please cite the following reference when publishing
                           results obtained with NWChem:

                 M. Valiev, E.J. Bylaska, N. Govind, K. Kowalski,
              T.P. Straatsma, H.J.J. van Dam, D. Wang, J. Nieplocha,
                        E. Apra, T.L. Windus, W.A. de Jong
                 "NWChem: a comprehensive and scalable open-source
                  solution for large scale molecular simulations"
                      Comput. Phys. Commun. 181, 1477 (2010)
                           doi:10.1016/j.cpc.2010.04.018

                                      AUTHORS
                                      -------
          E. Apra, E. J. Bylaska, W. A. de Jong, N. Govind, K. Kowalski,
       T. P. Straatsma, M. Valiev, H. J. J. van Dam, D. Wang, T. L. Windus,
        J. Hammond, J. Autschbach, K. Bhaskaran-Nair, J. Brabec, K. Lopata,
    S. A. Fischer, S. Krishnamoorthy, M. Jacquelin, W. Ma, M. Klemm, O. Villa,
      Y. Chen, V. Anisimov, F. Aquino, S. Hirata, M. T. Hackler, V. Konjkov,
      T. Risthaus, M. Malagoli, A. Marenich, A. Otero-de-la-Roza, J. Mullin,
        P. Nichols, R. Peverati, J. Pittner, Y. Zhao, P.-D. Fan, A. Fonari,
       M. Williamson, R. J. Harrison, J. R. Rehr, M. Dupuis, D. Silverstein,
    D. M. A. Smith, J. Nieplocha, V. Tipparaju, M. Krishnan, B. E. Van Kuiken,
        A. Vazquez-Mayagoitia, L. Jensen, M. Swart, Q. Wu, T. Van Voorhis,
     A. A. Auer, M. Nooijen, L. D. Crosby, E. Brown, G. Cisneros, G. I. Fann,
   H. Fruchtl, J. Garza, K. Hirao, R. A. Kendall, J. A. Nichols, K. Tsemekhman,
    K. Wolinski, J. Anchell, D. E. Bernholdt, P. Borowski, T. Clark, D. Clerc,
   H. Dachsel, M. J. O. Deegan, K. Dyall, D. Elwood, E. Glendening, M. Gutowski,
   A. C. Hess, J. Jaffe, B. G. Johnson, J. Ju, R. Kobayashi, R. Kutteh, Z. Lin,
   R. Littlefield, X. Long, B. Meng, T. Nakajima, S. Niu, L. Pollack, M. Rosing,
   K. Glaesemann, G. Sandrone, M. Stave, H. Taylor, G. Thomas, J. H. van Lenthe,
                               A. T. Wong, Z. Zhang.

 Total times  cpu:       12.0s     wall:       16.6s
