 argument  1 = input-wf.nw



============================== echo of input deck ==============================
echo
start wfn1_dat
geometry units au noautoz
  H 0 0 -2.39434600000000000000
  H 0 0  2.39434600000000000000
  symmetry cs
end
basis
  H library 6-31g
end
set wfn1:input_vectors "atomic"
set wfn1:solver "monte-carlo"
set wfn1:print_error F
set wfn1:t_initial 0.1
set wfn1:nopen 2
#set wfn1:corr_expr "wfn1_mx"
set wfn1:corr_expr "wfn1c"
set wfn1:t_bath 0.0
set wfn1:maxit  20000
task wfn1 energy
================================================================================


                                         
                                         


              Northwest Computational Chemistry Package (NWChem) 6.8
              ------------------------------------------------------


                    Environmental Molecular Sciences Laboratory
                       Pacific Northwest National Laboratory
                                Richland, WA 99352

                              Copyright (c) 1994-2015
                       Pacific Northwest National Laboratory
                            Battelle Memorial Institute

             NWChem is an open-source computational chemistry package
                        distributed under the terms of the
                      Educational Community License (ECL) 2.0
             A copy of the license is included with this distribution
                              in the LICENSE.TXT file

                                  ACKNOWLEDGMENT
                                  --------------

            This software and its documentation were developed at the
            EMSL at Pacific Northwest National Laboratory, a multiprogram
            national laboratory, operated for the U.S. Department of Energy
            by Battelle under Contract Number DE-AC05-76RL01830. Support
            for this work was provided by the Department of Energy Office
            of Biological and Environmental Research, Office of Basic
            Energy Sciences, and the Office of Advanced Scientific Computing.


           Job information
           ---------------

    hostname        = erato
    program         = ../../../bin/LINUX64/nwchem
    date            = Sat Mar  6 01:30:08 2021

    compiled        = Sat_Mar_06_01:07:04_2021
    source          = /home/hvandam/nwchem-1-wfn1
    nwchem branch   = Development
    nwchem revision = nwchem_on_git-124-gad72d19fff205e319ffbbf2bca37a04ded6ad57b
    ga revision     = nwchem_on_git-124-gad72d19
    use scalapack   = F
    input           = input-wf.nw
    prefix          = wfn1_dat.
    data base       = ./wfn1_dat.db
    status          = startup
    nproc           =        1
    time left       =     -1s



           Memory information
           ------------------

    heap     =   13107200 doubles =    100.0 Mbytes
    stack    =   13107197 doubles =    100.0 Mbytes
    global   =   26214400 doubles =    200.0 Mbytes (distinct from heap & stack)
    total    =   52428797 doubles =    400.0 Mbytes
    verify   = yes
    hardfail = no 


           Directory information
           ---------------------

  0 permanent = .
  0 scratch   = .




                                NWChem Input Module
                                -------------------


 Turning off AUTOSYM since
 SYMMETRY directive was detected!



                             Geometry "geometry" -> ""
                             -------------------------

 Output coordinates in a.u. (scale by  1.000000000 to convert to a.u.)

  No.       Tag          Charge          X              Y              Z
 ---- ---------------- ---------- -------------- -------------- --------------
    1 H                    1.0000     0.00000000     0.00000000    -2.39434600
    2 H                    1.0000     0.00000000     0.00000000     2.39434600

      Atomic Mass 
      ----------- 

      H                  1.007825


 Effective nuclear repulsion energy (a.u.)       0.2088252909

            Nuclear Dipole moment (a.u.) 
            ----------------------------
        X                 Y               Z
 ---------------- ---------------- ----------------
     0.0000000000     0.0000000000     0.0000000000

      Symmetry information
      --------------------

 Group name             Cs        
 Group number              2
 Group order               2
 No. of unique centers     1

      Symmetry unique atoms

     1


            XYZ format geometry
            -------------------
     2
 geometry
 H                     0.00000000     0.00000000    -1.26703343
 H                     0.00000000     0.00000000     1.26703343

                      Basis "ao basis" -> "" (cartesian)
                      -----
  H (Hydrogen)
  ------------
            Exponent  Coefficients 
       -------------- ---------------------------------------------------------
  1 S  1.87311370E+01  0.033495
  1 S  2.82539370E+00  0.234727
  1 S  6.40121700E-01  0.813757

  2 S  1.61277800E-01  1.000000



 Summary of "ao basis" -> "" (cartesian)
 ------------------------------------------------------------------------------
       Tag                 Description            Shells   Functions and Types
 ---------------- ------------------------------  ------  ---------------------
 H                           6-31g                   2        2   2s



                                NWChem WFN1 Module
                                ------------------



          No. of electrons :     2
           Alpha electrons :     2
            Beta electrons :     0
          Charge           :     0
          Spin multiplicity:     3

 HvD: wfn1_inpdft
 HvD: nquad_task =                     1
 HvD: iangquad   =                     0
 HvD: gridtype   = user      
 HvD: leb        =  T
 HvD: radgrid    = murakn    
 HvD: trunc_neigh=  T
 HvD: lssw       =  T
 HvD: whichssw   = erf1    
 HvD: mxnrad     =                     0
 HvD: mxnang     =                     0
 HVD: wfn1: movecs_in  = atomic                                                                                                                                                                                                                                                          
 HVD: wfn1: movecs_out = ./wfn1_dat.movecs                                                                                                                                                                                                                                               

      Superposition of Atomic Density Guess
      -------------------------------------

 Sum of atomic energies:          -0.99646508

      Non-variational initial energy
      ------------------------------

 Total energy =      -0.684242
 1-e energy   =      -1.414094
 2-e energy   =       0.521027
 HOMO         =      -0.227756
 LUMO         =      -0.151733

 iteration              energy           error
 ---------              ------           -----
         0         -0.98268723        0.080000
         1         -0.98344062        0.080000
         2         -0.98385854        0.080000
         3         -0.98535725        0.080000
         4         -0.98576073        0.080000
         5         -0.98737091        0.080000
         6         -0.98846421        0.080000
         7         -0.98921751        0.080000
         8         -0.98993727        0.080000
         9         -0.99020756        0.080000
        10         -0.99033679        0.080000
        11         -0.99108444        0.080000
        12         -0.99208096        0.080000
        13         -0.99221291        0.080000
        14         -0.99278370        0.080000
        15         -0.99289617        0.080000
        16         -0.99304975        0.080000
        17         -0.99333613        0.080000
        18         -0.99349236        0.080000
        19         -0.99351229        0.080000
        20         -0.99380083        0.080000
        21         -0.99395104        0.080000
        22         -0.99396080        0.078456
        23         -0.99403640        0.078456
        24         -0.99404565        0.078456
        25         -0.99407925        0.072635
        26         -0.99410403        0.064708
        27         -0.99412302        0.064708
        28         -0.99412429        0.055470
        29         -0.99414219        0.055470
        30         -0.99420992        0.055470
        31         -0.99422646        0.048474
        32         -0.99427200        0.043184
        33         -0.99427901        0.043184
        34         -0.99428131        0.031129
        35         -0.99428561        0.031129
        36         -0.99429044        0.031129
        37         -0.99429595        0.019235
        38         -0.99430172        0.017136
        39         -0.99430287        0.014690
        40         -0.99430288        0.014690
        41         -0.99430438        0.014690
        42         -0.99430510        0.014690
        43         -0.99430574        0.014690
        44         -0.99430915        0.014690
        45         -0.99430934        0.012592
        46         -0.99431089        0.011885
        47         -0.99431136        0.010188
        48         -0.99431204        0.008733
        49         -0.99431237        0.007487
        50         -0.99431270        0.007487
        51         -0.99431314        0.007487
        52         -0.99431321        0.007487
        53         -0.99431348        0.005397
        54         -0.99431387        0.005397
        55         -0.99431397        0.004901
        56         -0.99431397        0.004901
        57         -0.99431401        0.004901
        58         -0.99431414        0.003029
        59         -0.99431445        0.002698
        60         -0.99431453        0.002313
        61         -0.99431453        0.002313
        62         -0.99431458        0.001667
        63         -0.99431462        0.001667
        64         -0.99431466        0.001457
        65         -0.99431466        0.001273
        66         -0.99431467        0.001273
        67         -0.99431470        0.001273
        68         -0.99431470        0.001091
        69         -0.99431472        0.001091
        70         -0.99431473        0.001091
        71         -0.99431473        0.000818
        72         -0.99431474        0.000728
        73         -0.99431474        0.000728
        74         -0.99431474        0.000728
        75         -0.99431474        0.000624
        76         -0.99431474        0.000556
        77         -0.99431475        0.000556
        78         -0.99431475        0.000556
        79         -0.99431475        0.000401
        80         -0.99431475        0.000357
        81         -0.99431475        0.000306
        82         -0.99431475        0.000306
        83         -0.99431475        0.000306
        84         -0.99431475        0.000262
        85         -0.99431475        0.000262
        86         -0.99431475        0.000197
        87         -0.99431475        0.000197
        88         -0.99431475        0.000144
        89         -0.99431476        0.000144
        90         -0.99431476        0.000144
        91         -0.99431476        0.000144
        92         -0.99431476        0.000144
        93         -0.99431476        0.000126
        94         -0.99431476        0.000098
        95         -0.99431476        0.000098
        96         -0.99431476        0.000098
        97         -0.99431476        0.000084
        98         -0.99431476        0.000075
        99         -0.99431476        0.000064
       100         -0.99431476        0.000064
       101         -0.99431476        0.000064
       102         -0.99431476        0.000064
       103         -0.99431476        0.000055
       104         -0.99431476        0.000030
       105         -0.99431476        0.000030
       106         -0.99431476        0.000030
       107         -0.99431476        0.000026
       108         -0.99431476        0.000019
       109         -0.99431476        0.000019
       110         -0.99431476        0.000019
       111         -0.99431476        0.000016
       112         -0.99431476        0.000016
       113         -0.99431476        0.000016
       114         -0.99431476        0.000015
       115         -0.99431476        0.000013
       116         -0.99431476        0.000011
       117         -0.99431476        0.000011
       118         -0.99431476        0.000011
       119         -0.99431476        0.000011
       120         -0.99431476        0.000010
       121         -0.99431476        0.000010
       122         -0.99431476        0.000007
       123         -0.99431476        0.000005
       124         -0.99431476        0.000005
       125         -0.99431476        0.000005
       126         -0.99431476        0.000005
       127         -0.99431476        0.000005
       128         -0.99431476        0.000005
       129         -0.99431476        0.000005
       130         -0.99431476        0.000004
       131         -0.99431476        0.000004
       132         -0.99431476        0.000004
       133         -0.99431476        0.000004
       134         -0.99431476        0.000004
       135         -0.99431476        0.000002
       136         -0.99431476        0.000002
       137         -0.99431476        0.000002
       138         -0.99431476        0.000002
       139         -0.99431476        0.000002
       140         -0.99431476        0.000002
       141         -0.99431476        0.000002
       142         -0.99431476        0.000002
       143         -0.99431476        0.000002
       144         -0.99431476        0.000001
       145         -0.99431476        0.000001
       146         -0.99431476        0.000001
       147         -0.99431476        0.000001
       148         -0.99431476        0.000001
       149         -0.99431476        0.000001

 Reached Convergence

 WFN1                     :
 --------------------------
 Total WFN1 energy  =          -0.9943147572
 1-Electron energy  =          -1.4094346877
 2-Electron energy  =           0.2062946396
 Correlation energy =           0.0000000000
 DFT XC energy      =           0.0000000000
 Entropy energy     =           0.0000000000
 Nuclear energy     =           0.2088252909

 conventional Hartree-Fock:
 --------------------------
 Total SCF energy  =          -0.9943147572
 2-Electron energy =           0.2062946396

                WFN1 Final Natural orbital energies and occupations
                ---------------------------------------------------

              Alpha       Beta            Alpha       Beta  
            --------    --------        --------    --------
       1      0.0000      0.0000          1.0000      0.0000
       2      0.0000      0.0000          1.0000      0.0000
       3      0.0000      0.0000          0.0000      0.0000
       4      0.0000      0.0000          0.0000      0.0000

             WFN1 Final Correlation function energies and occupations
             --------------------------------------------------------

              Alpha       Beta            Alpha       Beta  
            --------    --------        --------    --------
       1      0.0000      0.0000          1.0000      0.0000
       2      0.0000      0.0000          1.0000      0.0000
       3      0.0000      0.0000          0.0000      0.0000
       4      0.0000      0.0000          0.0000      0.0000

                WFN1 Final alpha-alpha 2-matrix occupation numbers
                --------------------------------------------------


 global array: g_momo1[1:4,1:4],  handle: -990 

            1           2           3           4  
       ----------- ----------- ----------- -----------
   1      -0.00000     1.00000     0.00000     0.00000
   2       1.00000     0.00000     0.00000     0.00000
   3       0.00000     0.00000     0.00000     0.00000
   4       0.00000     0.00000     0.00000     0.00000

                 WFN1 Final beta-beta 2-matrix occupation numbers
                 ------------------------------------------------


 global array: g_momo2[1:4,1:4],  handle: -989 

            1           2           3           4  
       ----------- ----------- ----------- -----------
   1       0.00000     0.00000     0.00000     0.00000
   2       0.00000     0.00000     0.00000     0.00000
   3       0.00000     0.00000     0.00000     0.00000
   4       0.00000     0.00000     0.00000     0.00000

                  WFN1 Final alpha Correlation Function Analysis
                  ----------------------------------------------


 global array: Ca[1:4,1:4],  handle: -977 

                     1                       2                       3                       4  
       ----------------------- ----------------------- ----------------------- -----------------------
   1       0.58197,   -0.61120    -0.36533,    0.39278     0.00000,    0.00000     0.00000,    0.00000
   2       0.11692,   -0.52352     0.17431,   -0.82575    -0.00000,   -0.00000     0.00000,    0.00000
   3      -0.00000,    0.00000    -0.00000,    0.00000    -0.46310,   -0.70508     0.29403,    0.44939
   4       0.00000,   -0.00000     0.00000,   -0.00000    -0.11149,   -0.52533    -0.17367,   -0.82549

                   WFN1 Final beta Correlation Function Analysis
                   ---------------------------------------------


 global array: Cb[1:4,1:4],  handle: -976 

                     1                       2                       3                       4  
       ----------------------- ----------------------- ----------------------- -----------------------
   1       0.55963,   -0.55334    -0.44516,    0.42519    -0.03732,   -0.00097     0.01256,   -0.01107
   2       0.09778,   -0.60583     0.14278,   -0.77084    -0.00331,   -0.05277     0.07407,   -0.02337
   3      -0.04159,    0.02009     0.00624,    0.04544    -0.48773,   -0.73130     0.26143,    0.39336
   4       0.03157,    0.03018     0.05775,    0.03197    -0.09202,   -0.46331    -0.17876,   -0.85945

                     WFN1 Final Alpha Natural Orbital Analysis
                     -----------------------------------------

 Vector    1  Occ=1.000000D+00  E= 0.000000D+00
              MO Center=  0.0D+00,  0.0D+00,  1.5D-02, r^2= 2.3D+00
   Bfn.  Coefficient  Atom+Function         Bfn.  Coefficient  Atom+Function  
  ----- ------------  ---------------      ----- ------------  ---------------
     4     -0.450484  2 H  s                  2     -0.444457  1 H  s          
     3     -0.295874  2 H  s                  1     -0.292068  1 H  s          

 Vector    2  Occ=1.000000D+00  E= 0.000000D+00
              MO Center=  0.0D+00,  0.0D+00, -1.5D-02, r^2= 2.5D+00
   Bfn.  Coefficient  Atom+Function         Bfn.  Coefficient  Atom+Function  
  ----- ------------  ---------------      ----- ------------  ---------------
     2      0.498837  1 H  s                  4     -0.493401  2 H  s          
     1      0.315073  1 H  s                  3     -0.311501  2 H  s          

 Vector    3  Occ=8.879125D-15  E= 0.000000D+00
              MO Center=  0.0D+00,  0.0D+00, -6.9D-02, r^2= 2.6D+00
   Bfn.  Coefficient  Atom+Function         Bfn.  Coefficient  Atom+Function  
  ----- ------------  ---------------      ----- ------------  ---------------
     1      0.898454  1 H  s                  3      0.849118  2 H  s          
     2     -0.756166  1 H  s                  4     -0.706067  2 H  s          

 Vector    4  Occ=8.334903D-15  E= 0.000000D+00
              MO Center=  0.0D+00,  0.0D+00,  6.9D-02, r^2= 3.2D+00
   Bfn.  Coefficient  Atom+Function         Bfn.  Coefficient  Atom+Function  
  ----- ------------  ---------------      ----- ------------  ---------------
     4     -0.948000  2 H  s                  3      0.937726  2 H  s          
     2      0.908542  1 H  s                  1     -0.890568  1 H  s          


                     WFN1 Final Beta Natural Orbital Analysis
                     ----------------------------------------

 Vector    1  Occ=0.000000D+00  E= 0.000000D+00
              MO Center=  0.0D+00,  0.0D+00, -8.4D-03, r^2= 2.3D+00
   Bfn.  Coefficient  Atom+Function         Bfn.  Coefficient  Atom+Function  
  ----- ------------  ---------------      ----- ------------  ---------------
     2     -0.509379  1 H  s                  4     -0.410543  2 H  s          
     3     -0.328254  2 H  s                  1     -0.227125  1 H  s          

 Vector    2  Occ=0.000000D+00  E= 0.000000D+00
              MO Center=  0.0D+00,  0.0D+00,  4.1D-03, r^2= 2.6D+00
   Bfn.  Coefficient  Atom+Function         Bfn.  Coefficient  Atom+Function  
  ----- ------------  ---------------      ----- ------------  ---------------
     2      0.564880  1 H  s                  4     -0.504446  2 H  s          
     3     -0.310620  2 H  s                  1      0.237225  1 H  s          

 Vector    3  Occ=0.000000D+00  E= 0.000000D+00
              MO Center=  0.0D+00,  0.0D+00,  3.2D-02, r^2= 2.5D+00
   Bfn.  Coefficient  Atom+Function         Bfn.  Coefficient  Atom+Function  
  ----- ------------  ---------------      ----- ------------  ---------------
     1      0.876529  1 H  s                  3      0.879897  2 H  s          
     4     -0.757997  2 H  s                  2     -0.687631  1 H  s          

 Vector    4  Occ=0.000000D+00  E= 0.000000D+00
              MO Center=  0.0D+00,  0.0D+00, -2.8D-02, r^2= 3.1D+00
   Bfn.  Coefficient  Atom+Function         Bfn.  Coefficient  Atom+Function  
  ----- ------------  ---------------      ----- ------------  ---------------
     1     -0.953279  1 H  s                  4     -0.919807  2 H  s          
     3      0.898026  2 H  s                  2      0.890069  1 H  s          


 Task  times  cpu:       15.3s     wall:       22.7s
 Summary of allocated global arrays
-----------------------------------
  No active global arrays



                         GA Statistics for process    0
                         ------------------------------

       create   destroy   get      put      acc     scatter   gather  read&inc
calls:   44       44     8.72e+06 3.01e+04 2.39e+04    0        0       11     
number of processes/call 1.00e+00 1.00e+00 1.00e+00 0.00e+00 0.00e+00
bytes total:             1.12e+09 5.33e+06 3.81e+06 0.00e+00 0.00e+00 8.80e+01
bytes remote:            0.00e+00 0.00e+00 0.00e+00 0.00e+00 0.00e+00 0.00e+00
Max memory consumed for GA by this process: 10624 bytes
MA_summarize_allocated_blocks: starting scan ...
MA_summarize_allocated_blocks: scan completed: 0 heap blocks, 0 stack blocks
MA usage statistics:

	allocation statistics:
					      heap	     stack
					      ----	     -----
	current number of blocks	         0	         0
	maximum number of blocks	        19	        17
	current total bytes		         0	         0
	maximum total bytes		   3204328	  22508616
	maximum total K-bytes		      3205	     22509
	maximum total M-bytes		         4	        23


                                NWChem Input Module
                                -------------------





                                     CITATION
                                     --------
                Please cite the following reference when publishing
                           results obtained with NWChem:

                 M. Valiev, E.J. Bylaska, N. Govind, K. Kowalski,
              T.P. Straatsma, H.J.J. van Dam, D. Wang, J. Nieplocha,
                        E. Apra, T.L. Windus, W.A. de Jong
                 "NWChem: a comprehensive and scalable open-source
                  solution for large scale molecular simulations"
                      Comput. Phys. Commun. 181, 1477 (2010)
                           doi:10.1016/j.cpc.2010.04.018

                                      AUTHORS
                                      -------
          E. Apra, E. J. Bylaska, W. A. de Jong, N. Govind, K. Kowalski,
       T. P. Straatsma, M. Valiev, H. J. J. van Dam, D. Wang, T. L. Windus,
        J. Hammond, J. Autschbach, K. Bhaskaran-Nair, J. Brabec, K. Lopata,
    S. A. Fischer, S. Krishnamoorthy, M. Jacquelin, W. Ma, M. Klemm, O. Villa,
      Y. Chen, V. Anisimov, F. Aquino, S. Hirata, M. T. Hackler, V. Konjkov,
      T. Risthaus, M. Malagoli, A. Marenich, A. Otero-de-la-Roza, J. Mullin,
        P. Nichols, R. Peverati, J. Pittner, Y. Zhao, P.-D. Fan, A. Fonari,
       M. Williamson, R. J. Harrison, J. R. Rehr, M. Dupuis, D. Silverstein,
    D. M. A. Smith, J. Nieplocha, V. Tipparaju, M. Krishnan, B. E. Van Kuiken,
        A. Vazquez-Mayagoitia, L. Jensen, M. Swart, Q. Wu, T. Van Voorhis,
     A. A. Auer, M. Nooijen, L. D. Crosby, E. Brown, G. Cisneros, G. I. Fann,
   H. Fruchtl, J. Garza, K. Hirao, R. A. Kendall, J. A. Nichols, K. Tsemekhman,
    K. Wolinski, J. Anchell, D. E. Bernholdt, P. Borowski, T. Clark, D. Clerc,
   H. Dachsel, M. J. O. Deegan, K. Dyall, D. Elwood, E. Glendening, M. Gutowski,
   A. C. Hess, J. Jaffe, B. G. Johnson, J. Ju, R. Kobayashi, R. Kutteh, Z. Lin,
   R. Littlefield, X. Long, B. Meng, T. Nakajima, S. Niu, L. Pollack, M. Rosing,
   K. Glaesemann, G. Sandrone, M. Stave, H. Taylor, G. Thomas, J. H. van Lenthe,
                               A. T. Wong, Z. Zhang.

 Total times  cpu:       15.3s     wall:       22.8s
