 argument  1 = input-wf.nw



============================== echo of input deck ==============================
echo
start wfn1_dat
geometry units au noautoz
  H 0 0 -2.04434600000000000000
  H 0 0  2.04434600000000000000
  symmetry cs
end
basis
  H library 6-31g
end
set wfn1:input_vectors "atomic"
set wfn1:solver "monte-carlo"
set wfn1:print_error F
set wfn1:t_initial 0.1
set wfn1:nopen 2
#set wfn1:corr_expr "wfn1_mx"
set wfn1:corr_expr "wfn1c"
set wfn1:t_bath 0.0
set wfn1:maxit  20000
task wfn1 energy
================================================================================


                                         
                                         


              Northwest Computational Chemistry Package (NWChem) 6.8
              ------------------------------------------------------


                    Environmental Molecular Sciences Laboratory
                       Pacific Northwest National Laboratory
                                Richland, WA 99352

                              Copyright (c) 1994-2015
                       Pacific Northwest National Laboratory
                            Battelle Memorial Institute

             NWChem is an open-source computational chemistry package
                        distributed under the terms of the
                      Educational Community License (ECL) 2.0
             A copy of the license is included with this distribution
                              in the LICENSE.TXT file

                                  ACKNOWLEDGMENT
                                  --------------

            This software and its documentation were developed at the
            EMSL at Pacific Northwest National Laboratory, a multiprogram
            national laboratory, operated for the U.S. Department of Energy
            by Battelle under Contract Number DE-AC05-76RL01830. Support
            for this work was provided by the Department of Energy Office
            of Biological and Environmental Research, Office of Basic
            Energy Sciences, and the Office of Advanced Scientific Computing.


           Job information
           ---------------

    hostname        = erato
    program         = ../../../bin/LINUX64/nwchem
    date            = Sat Mar  6 01:27:27 2021

    compiled        = Sat_Mar_06_01:07:04_2021
    source          = /home/hvandam/nwchem-1-wfn1
    nwchem branch   = Development
    nwchem revision = nwchem_on_git-124-gad72d19fff205e319ffbbf2bca37a04ded6ad57b
    ga revision     = nwchem_on_git-124-gad72d19
    use scalapack   = F
    input           = input-wf.nw
    prefix          = wfn1_dat.
    data base       = ./wfn1_dat.db
    status          = startup
    nproc           =        1
    time left       =     -1s



           Memory information
           ------------------

    heap     =   13107196 doubles =    100.0 Mbytes
    stack    =   13107201 doubles =    100.0 Mbytes
    global   =   26214400 doubles =    200.0 Mbytes (distinct from heap & stack)
    total    =   52428797 doubles =    400.0 Mbytes
    verify   = yes
    hardfail = no 


           Directory information
           ---------------------

  0 permanent = .
  0 scratch   = .




                                NWChem Input Module
                                -------------------


 Turning off AUTOSYM since
 SYMMETRY directive was detected!



                             Geometry "geometry" -> ""
                             -------------------------

 Output coordinates in a.u. (scale by  1.000000000 to convert to a.u.)

  No.       Tag          Charge          X              Y              Z
 ---- ---------------- ---------- -------------- -------------- --------------
    1 H                    1.0000     0.00000000     0.00000000    -2.04434600
    2 H                    1.0000     0.00000000     0.00000000     2.04434600

      Atomic Mass 
      ----------- 

      H                  1.007825


 Effective nuclear repulsion energy (a.u.)       0.2445769943

            Nuclear Dipole moment (a.u.) 
            ----------------------------
        X                 Y               Z
 ---------------- ---------------- ----------------
     0.0000000000     0.0000000000     0.0000000000

      Symmetry information
      --------------------

 Group name             Cs        
 Group number              2
 Group order               2
 No. of unique centers     1

      Symmetry unique atoms

     1


            XYZ format geometry
            -------------------
     2
 geometry
 H                     0.00000000     0.00000000    -1.08182139
 H                     0.00000000     0.00000000     1.08182139

                      Basis "ao basis" -> "" (cartesian)
                      -----
  H (Hydrogen)
  ------------
            Exponent  Coefficients 
       -------------- ---------------------------------------------------------
  1 S  1.87311370E+01  0.033495
  1 S  2.82539370E+00  0.234727
  1 S  6.40121700E-01  0.813757

  2 S  1.61277800E-01  1.000000



 Summary of "ao basis" -> "" (cartesian)
 ------------------------------------------------------------------------------
       Tag                 Description            Shells   Functions and Types
 ---------------- ------------------------------  ------  ---------------------
 H                           6-31g                   2        2   2s



                                NWChem WFN1 Module
                                ------------------



          No. of electrons :     2
           Alpha electrons :     2
            Beta electrons :     0
          Charge           :     0
          Spin multiplicity:     3

 HvD: wfn1_inpdft
 HvD: nquad_task =                     1
 HvD: iangquad   =                     0
 HvD: gridtype   = user      
 HvD: leb        =  T
 HvD: radgrid    = murakn    
 HvD: trunc_neigh=  T
 HvD: lssw       =  T
 HvD: whichssw   = erf1    
 HvD: mxnrad     =                     0
 HvD: mxnang     =                     0
 HVD: wfn1: movecs_in  = atomic                                                                                                                                                                                                                                                          
 HVD: wfn1: movecs_out = ./wfn1_dat.movecs                                                                                                                                                                                                                                               

      Superposition of Atomic Density Guess
      -------------------------------------

 Sum of atomic energies:          -0.99646508

      Non-variational initial energy
      ------------------------------

 Total energy =      -0.689259
 1-e energy   =      -1.485398
 2-e energy   =       0.551562
 HOMO         =      -0.252313
 LUMO         =      -0.123627

 iteration              energy           error
 ---------              ------           -----
         0         -0.97835340        0.080000
         1         -0.98012744        0.080000
         2         -0.98027171        0.080000
         3         -0.98072634        0.080000
         4         -0.98098809        0.080000
         5         -0.98215112        0.080000
         6         -0.98226799        0.080000
         7         -0.98228395        0.080000
         8         -0.98230619        0.080000
         9         -0.98283081        0.080000
        10         -0.98320062        0.080000
        11         -0.98369885        0.080000
        12         -0.98371472        0.080000
        13         -0.98462953        0.080000
        14         -0.98560803        0.080000
        15         -0.98643140        0.080000
        16         -0.98724133        0.080000
        17         -0.98798798        0.080000
        18         -0.98875304        0.080000
        19         -0.98884906        0.080000
        20         -0.98908352        0.080000
        21         -0.98909601        0.080000
        22         -0.98912582        0.080000
        23         -0.98929573        0.080000
        24         -0.98932216        0.080000
        25         -0.98952692        0.080000
        26         -0.98955381        0.075485
        27         -0.98961893        0.075485
        28         -0.98967553        0.065965
        29         -0.98970783        0.065965
        30         -0.98977755        0.065965
        31         -0.98983540        0.065965
        32         -0.98985826        0.057646
        33         -0.98994595        0.052352
        34         -0.98997348        0.052352
        35         -0.98999785        0.044878
        36         -0.99000542        0.039218
        37         -0.99001273        0.039218
        38         -0.99003017        0.033619
        39         -0.99004017        0.033619
        40         -0.99004023        0.029379
        41         -0.99004189        0.029379
        42         -0.99004301        0.029379
        43         -0.99004309        0.025674
        44         -0.99004854        0.025674
        45         -0.99005989        0.025674
        46         -0.99006131        0.019233
        47         -0.99006628        0.019233
        48         -0.99006965        0.019233
        49         -0.99006973        0.014408
        50         -0.99007033        0.014408
        51         -0.99007041        0.014408
        52         -0.99007138        0.010793
        53         -0.99007170        0.010793
        54         -0.99007177        0.010793
        55         -0.99007254        0.010793
        56         -0.99007294        0.009615
        57         -0.99007377        0.008732
        58         -0.99007501        0.008732
        59         -0.99007548        0.007486
        60         -0.99007602        0.007486
        61         -0.99007606        0.007486
        62         -0.99007627        0.007486
        63         -0.99007627        0.007486
        64         -0.99007678        0.007486
        65         -0.99007685        0.004626
        66         -0.99007685        0.004626
        67         -0.99007712        0.003671
        68         -0.99007719        0.003208
        69         -0.99007725        0.003208
        70         -0.99007751        0.003208
        71         -0.99007759        0.002313
        72         -0.99007764        0.002313
        73         -0.99007766        0.002060
        74         -0.99007770        0.001800
        75         -0.99007770        0.001800
        76         -0.99007770        0.001800
        77         -0.99007773        0.001800
        78         -0.99007776        0.001091
        79         -0.99007776        0.000833
        80         -0.99007777        0.000833
        81         -0.99007778        0.000833
        82         -0.99007778        0.000714
        83         -0.99007779        0.000714
        84         -0.99007779        0.000714
        85         -0.99007780        0.000714
        86         -0.99007780        0.000636
        87         -0.99007780        0.000636
        88         -0.99007780        0.000636
        89         -0.99007780        0.000344
        90         -0.99007780        0.000306
        91         -0.99007781        0.000262
        92         -0.99007781        0.000225
        93         -0.99007781        0.000225
        94         -0.99007781        0.000225
        95         -0.99007781        0.000225
        96         -0.99007781        0.000193
        97         -0.99007781        0.000193
        98         -0.99007781        0.000193
        99         -0.99007781        0.000175
       100         -0.99007781        0.000156
       101         -0.99007781        0.000112
       102         -0.99007781        0.000112
       103         -0.99007781        0.000096
       104         -0.99007781        0.000096
       105         -0.99007781        0.000096
       106         -0.99007781        0.000096
       107         -0.99007781        0.000084
       108         -0.99007781        0.000084
       109         -0.99007781        0.000084
       110         -0.99007781        0.000064
       111         -0.99007781        0.000064
       112         -0.99007781        0.000048
       113         -0.99007781        0.000048
       114         -0.99007781        0.000030
       115         -0.99007781        0.000030
       116         -0.99007781        0.000030
       117         -0.99007781        0.000026
       118         -0.99007781        0.000019
       119         -0.99007781        0.000014
       120         -0.99007781        0.000014
       121         -0.99007781        0.000014
       122         -0.99007781        0.000014
       123         -0.99007781        0.000014
       124         -0.99007781        0.000014
       125         -0.99007781        0.000009
       126         -0.99007781        0.000009
       127         -0.99007781        0.000009
       128         -0.99007781        0.000009
       129         -0.99007781        0.000007
       130         -0.99007781        0.000006
       131         -0.99007781        0.000006
       132         -0.99007781        0.000006
       133         -0.99007781        0.000004
       134         -0.99007781        0.000004
       135         -0.99007781        0.000003
       136         -0.99007781        0.000002
       137         -0.99007781        0.000002
       138         -0.99007781        0.000002
       139         -0.99007781        0.000002
       140         -0.99007781        0.000002
       141         -0.99007781        0.000002
       142         -0.99007781        0.000002
       143         -0.99007781        0.000002
       144         -0.99007781        0.000002
       145         -0.99007781        0.000002
       146         -0.99007781        0.000002
       147         -0.99007781        0.000002
       148         -0.99007781        0.000001
       149         -0.99007781        0.000001
       150         -0.99007781        0.000001
       151         -0.99007781        0.000001

 Reached Convergence

 WFN1                     :
 --------------------------
 Total WFN1 energy  =          -0.9900778096
 1-Electron energy  =          -1.4710730227
 2-Electron energy  =           0.2364182188
 Correlation energy =           0.0000000000
 DFT XC energy      =           0.0000000000
 Entropy energy     =           0.0000000000
 Nuclear energy     =           0.2445769943

 conventional Hartree-Fock:
 --------------------------
 Total SCF energy  =          -0.9900778096
 2-Electron energy =           0.2364182188

                WFN1 Final Natural orbital energies and occupations
                ---------------------------------------------------

              Alpha       Beta            Alpha       Beta  
            --------    --------        --------    --------
       1      0.0000      0.0000          1.0000      0.0000
       2      0.0000      0.0000          1.0000      0.0000
       3      0.0000      0.0000          0.0000      0.0000
       4      0.0000      0.0000          0.0000      0.0000

             WFN1 Final Correlation function energies and occupations
             --------------------------------------------------------

              Alpha       Beta            Alpha       Beta  
            --------    --------        --------    --------
       1      0.0000      0.0000          1.0000      0.0000
       2      0.0000      0.0000          1.0000      0.0000
       3      0.0000      0.0000          0.0000      0.0000
       4      0.0000      0.0000          0.0000      0.0000

                WFN1 Final alpha-alpha 2-matrix occupation numbers
                --------------------------------------------------


 global array: g_momo1[1:4,1:4],  handle: -990 

            1           2           3           4  
       ----------- ----------- ----------- -----------
   1      -0.00000     1.00000     0.00000     0.00000
   2       1.00000     0.00000     0.00000     0.00000
   3       0.00000     0.00000     0.00000     0.00000
   4       0.00000     0.00000     0.00000    -0.00000

                 WFN1 Final beta-beta 2-matrix occupation numbers
                 ------------------------------------------------


 global array: g_momo2[1:4,1:4],  handle: -989 

            1           2           3           4  
       ----------- ----------- ----------- -----------
   1       0.00000     0.00000     0.00000     0.00000
   2       0.00000     0.00000     0.00000     0.00000
   3       0.00000     0.00000     0.00000     0.00000
   4       0.00000     0.00000     0.00000     0.00000

                  WFN1 Final alpha Correlation Function Analysis
                  ----------------------------------------------


 global array: Ca[1:4,1:4],  handle: -977 

                     1                       2                       3                       4  
       ----------------------- ----------------------- ----------------------- -----------------------
   1       0.63246,    0.59820    -0.36971,   -0.32475    -0.00000,   -0.00000    -0.00000,    0.00000
   2      -0.07036,   -0.48703    -0.15610,   -0.85644     0.00000,    0.00000    -0.00000,    0.00000
   3      -0.00000,    0.00000    -0.00000,    0.00000     0.42301,    0.71331     0.30903,    0.46558
   4      -0.00000,   -0.00000     0.00000,   -0.00000    -0.41285,   -0.37658     0.64024,    0.52710

                   WFN1 Final beta Correlation Function Analysis
                   ---------------------------------------------


 global array: Cb[1:4,1:4],  handle: -976 

                     1                       2                       3                       4  
       ----------------------- ----------------------- ----------------------- -----------------------
   1       0.62888,    0.57206    -0.41333,   -0.31793     0.00519,   -0.03534    -0.04633,    0.04366
   2      -0.04081,   -0.52058    -0.13281,   -0.83817     0.04990,   -0.06322     0.02182,    0.01428
   3      -0.03701,    0.01789    -0.05747,   -0.01255     0.39600,    0.69714     0.30795,    0.50714
   4      -0.01685,    0.05102     0.06515,   -0.01467    -0.45301,   -0.37973     0.62872,    0.49794

                     WFN1 Final Alpha Natural Orbital Analysis
                     -----------------------------------------

 Vector    1  Occ=1.000000D+00  E= 0.000000D+00
              MO Center=  0.0D+00,  0.0D+00,  7.1D-02, r^2= 1.8D+00
   Bfn.  Coefficient  Atom+Function         Bfn.  Coefficient  Atom+Function  
  ----- ------------  ---------------      ----- ------------  ---------------
     4     -0.445068  2 H  s                  2     -0.410982  1 H  s          
     3     -0.302515  2 H  s                  1     -0.281821  1 H  s          

 Vector    2  Occ=1.000000D+00  E= 0.000000D+00
              MO Center=  0.0D+00,  0.0D+00, -7.1D-02, r^2= 2.1D+00
   Bfn.  Coefficient  Atom+Function         Bfn.  Coefficient  Atom+Function  
  ----- ------------  ---------------      ----- ------------  ---------------
     2      0.538125  1 H  s                  4     -0.510293  2 H  s          
     1      0.327744  1 H  s                  3     -0.308746  2 H  s          

 Vector    3  Occ=3.631011D-15  E= 0.000000D+00
              MO Center=  0.0D+00,  0.0D+00, -6.5D-03, r^2= 2.2D+00
   Bfn.  Coefficient  Atom+Function         Bfn.  Coefficient  Atom+Function  
  ----- ------------  ---------------      ----- ------------  ---------------
     1      0.885589  1 H  s                  3      0.880302  2 H  s          
     2     -0.713839  1 H  s                  4     -0.708096  2 H  s          

 Vector    4  Occ=8.915518D-15  E= 0.000000D+00
              MO Center=  0.0D+00,  0.0D+00,  6.5D-03, r^2= 2.9D+00
   Bfn.  Coefficient  Atom+Function         Bfn.  Coefficient  Atom+Function  
  ----- ------------  ---------------      ----- ------------  ---------------
     2      0.989658  1 H  s                  4     -0.993775  2 H  s          
     3      0.915394  2 H  s                  1     -0.910280  1 H  s          


                     WFN1 Final Beta Natural Orbital Analysis
                     ----------------------------------------

 Vector    1  Occ=0.000000D+00  E= 0.000000D+00
              MO Center=  0.0D+00,  0.0D+00, -1.0D-01, r^2= 1.9D+00
   Bfn.  Coefficient  Atom+Function         Bfn.  Coefficient  Atom+Function  
  ----- ------------  ---------------      ----- ------------  ---------------
     4     -0.481944  2 H  s                  2     -0.440139  1 H  s          
     1     -0.312772  1 H  s                  3     -0.183693  2 H  s          

 Vector    2  Occ=0.000000D+00  E= 0.000000D+00
              MO Center=  0.0D+00,  0.0D+00,  1.3D-01, r^2= 2.1D+00
   Bfn.  Coefficient  Atom+Function         Bfn.  Coefficient  Atom+Function  
  ----- ------------  ---------------      ----- ------------  ---------------
     4     -0.536030  2 H  s                  2      0.530736  1 H  s          
     3     -0.352684  2 H  s                  1      0.264246  1 H  s          

 Vector    3  Occ=0.000000D+00  E= 0.000000D+00
              MO Center=  0.0D+00,  0.0D+00,  2.2D-01, r^2= 2.1D+00
   Bfn.  Coefficient  Atom+Function         Bfn.  Coefficient  Atom+Function  
  ----- ------------  ---------------      ----- ------------  ---------------
     3      0.975477  2 H  s                  1      0.807964  1 H  s          
     4     -0.803158  2 H  s                  2     -0.564090  1 H  s          

 Vector    4  Occ=0.000000D+00  E= 0.000000D+00
              MO Center=  0.0D+00,  0.0D+00, -2.5D-01, r^2= 2.8D+00
   Bfn.  Coefficient  Atom+Function         Bfn.  Coefficient  Atom+Function  
  ----- ------------  ---------------      ----- ------------  ---------------
     2      1.074184  1 H  s                  1     -0.989575  1 H  s          
     4     -0.884767  2 H  s                  3      0.830682  2 H  s          


 Task  times  cpu:       15.7s     wall:       27.2s
 Summary of allocated global arrays
-----------------------------------
  No active global arrays



                         GA Statistics for process    0
                         ------------------------------

       create   destroy   get      put      acc     scatter   gather  read&inc
calls:   44       44     8.33e+06 2.88e+04 2.28e+04    0        0       11     
number of processes/call 1.00e+00 1.00e+00 1.00e+00 0.00e+00 0.00e+00
bytes total:             1.07e+09 5.10e+06 3.64e+06 0.00e+00 0.00e+00 8.80e+01
bytes remote:            0.00e+00 0.00e+00 0.00e+00 0.00e+00 0.00e+00 0.00e+00
Max memory consumed for GA by this process: 10624 bytes
MA_summarize_allocated_blocks: starting scan ...
MA_summarize_allocated_blocks: scan completed: 0 heap blocks, 0 stack blocks
MA usage statistics:

	allocation statistics:
					      heap	     stack
					      ----	     -----
	current number of blocks	         0	         0
	maximum number of blocks	        19	        17
	current total bytes		         0	         0
	maximum total bytes		   3204360	  22508648
	maximum total K-bytes		      3205	     22509
	maximum total M-bytes		         4	        23


                                NWChem Input Module
                                -------------------





                                     CITATION
                                     --------
                Please cite the following reference when publishing
                           results obtained with NWChem:

                 M. Valiev, E.J. Bylaska, N. Govind, K. Kowalski,
              T.P. Straatsma, H.J.J. van Dam, D. Wang, J. Nieplocha,
                        E. Apra, T.L. Windus, W.A. de Jong
                 "NWChem: a comprehensive and scalable open-source
                  solution for large scale molecular simulations"
                      Comput. Phys. Commun. 181, 1477 (2010)
                           doi:10.1016/j.cpc.2010.04.018

                                      AUTHORS
                                      -------
          E. Apra, E. J. Bylaska, W. A. de Jong, N. Govind, K. Kowalski,
       T. P. Straatsma, M. Valiev, H. J. J. van Dam, D. Wang, T. L. Windus,
        J. Hammond, J. Autschbach, K. Bhaskaran-Nair, J. Brabec, K. Lopata,
    S. A. Fischer, S. Krishnamoorthy, M. Jacquelin, W. Ma, M. Klemm, O. Villa,
      Y. Chen, V. Anisimov, F. Aquino, S. Hirata, M. T. Hackler, V. Konjkov,
      T. Risthaus, M. Malagoli, A. Marenich, A. Otero-de-la-Roza, J. Mullin,
        P. Nichols, R. Peverati, J. Pittner, Y. Zhao, P.-D. Fan, A. Fonari,
       M. Williamson, R. J. Harrison, J. R. Rehr, M. Dupuis, D. Silverstein,
    D. M. A. Smith, J. Nieplocha, V. Tipparaju, M. Krishnan, B. E. Van Kuiken,
        A. Vazquez-Mayagoitia, L. Jensen, M. Swart, Q. Wu, T. Van Voorhis,
     A. A. Auer, M. Nooijen, L. D. Crosby, E. Brown, G. Cisneros, G. I. Fann,
   H. Fruchtl, J. Garza, K. Hirao, R. A. Kendall, J. A. Nichols, K. Tsemekhman,
    K. Wolinski, J. Anchell, D. E. Bernholdt, P. Borowski, T. Clark, D. Clerc,
   H. Dachsel, M. J. O. Deegan, K. Dyall, D. Elwood, E. Glendening, M. Gutowski,
   A. C. Hess, J. Jaffe, B. G. Johnson, J. Ju, R. Kobayashi, R. Kutteh, Z. Lin,
   R. Littlefield, X. Long, B. Meng, T. Nakajima, S. Niu, L. Pollack, M. Rosing,
   K. Glaesemann, G. Sandrone, M. Stave, H. Taylor, G. Thomas, J. H. van Lenthe,
                               A. T. Wong, Z. Zhang.

 Total times  cpu:       15.7s     wall:       27.3s
