 argument  1 = input-wf.nw



============================== echo of input deck ==============================
echo
start wfn1_dat
geometry units au noautoz
  H 0 0 -5.09434600000000000000
  H 0 0  5.09434600000000000000
  symmetry cs
end
basis
  H library 6-31g
end
set wfn1:input_vectors "atomic"
set wfn1:solver "monte-carlo"
set wfn1:print_error F
set wfn1:t_initial 0.1
set wfn1:nopen 2
#set wfn1:corr_expr "wfn1_mx"
set wfn1:corr_expr "wfn1c"
set wfn1:t_bath 0.0
set wfn1:maxit  20000
task wfn1 energy
================================================================================


                                         
                                         


              Northwest Computational Chemistry Package (NWChem) 6.8
              ------------------------------------------------------


                    Environmental Molecular Sciences Laboratory
                       Pacific Northwest National Laboratory
                                Richland, WA 99352

                              Copyright (c) 1994-2015
                       Pacific Northwest National Laboratory
                            Battelle Memorial Institute

             NWChem is an open-source computational chemistry package
                        distributed under the terms of the
                      Educational Community License (ECL) 2.0
             A copy of the license is included with this distribution
                              in the LICENSE.TXT file

                                  ACKNOWLEDGMENT
                                  --------------

            This software and its documentation were developed at the
            EMSL at Pacific Northwest National Laboratory, a multiprogram
            national laboratory, operated for the U.S. Department of Energy
            by Battelle under Contract Number DE-AC05-76RL01830. Support
            for this work was provided by the Department of Energy Office
            of Biological and Environmental Research, Office of Basic
            Energy Sciences, and the Office of Advanced Scientific Computing.


           Job information
           ---------------

    hostname        = erato
    program         = ../../../bin/LINUX64/nwchem
    date            = Sat Mar  6 01:49:00 2021

    compiled        = Sat_Mar_06_01:07:04_2021
    source          = /home/hvandam/nwchem-1-wfn1
    nwchem branch   = Development
    nwchem revision = nwchem_on_git-124-gad72d19fff205e319ffbbf2bca37a04ded6ad57b
    ga revision     = nwchem_on_git-124-gad72d19
    use scalapack   = F
    input           = input-wf.nw
    prefix          = wfn1_dat.
    data base       = ./wfn1_dat.db
    status          = startup
    nproc           =        1
    time left       =     -1s



           Memory information
           ------------------

    heap     =   13107200 doubles =    100.0 Mbytes
    stack    =   13107197 doubles =    100.0 Mbytes
    global   =   26214400 doubles =    200.0 Mbytes (distinct from heap & stack)
    total    =   52428797 doubles =    400.0 Mbytes
    verify   = yes
    hardfail = no 


           Directory information
           ---------------------

  0 permanent = .
  0 scratch   = .




                                NWChem Input Module
                                -------------------


 Turning off AUTOSYM since
 SYMMETRY directive was detected!



                             Geometry "geometry" -> ""
                             -------------------------

 Output coordinates in a.u. (scale by  1.000000000 to convert to a.u.)

  No.       Tag          Charge          X              Y              Z
 ---- ---------------- ---------- -------------- -------------- --------------
    1 H                    1.0000     0.00000000     0.00000000    -5.09434600
    2 H                    1.0000     0.00000000     0.00000000     5.09434600

      Atomic Mass 
      ----------- 

      H                  1.007825


 Effective nuclear repulsion energy (a.u.)       0.0981480253

            Nuclear Dipole moment (a.u.) 
            ----------------------------
        X                 Y               Z
 ---------------- ---------------- ----------------
     0.0000000000     0.0000000000     0.0000000000

      Symmetry information
      --------------------

 Group name             Cs        
 Group number              2
 Group order               2
 No. of unique centers     1

      Symmetry unique atoms

     1


            XYZ format geometry
            -------------------
     2
 geometry
 H                     0.00000000     0.00000000    -2.69581200
 H                     0.00000000     0.00000000     2.69581200

                      Basis "ao basis" -> "" (cartesian)
                      -----
  H (Hydrogen)
  ------------
            Exponent  Coefficients 
       -------------- ---------------------------------------------------------
  1 S  1.87311370E+01  0.033495
  1 S  2.82539370E+00  0.234727
  1 S  6.40121700E-01  0.813757

  2 S  1.61277800E-01  1.000000



 Summary of "ao basis" -> "" (cartesian)
 ------------------------------------------------------------------------------
       Tag                 Description            Shells   Functions and Types
 ---------------- ------------------------------  ------  ---------------------
 H                           6-31g                   2        2   2s



                                NWChem WFN1 Module
                                ------------------



          No. of electrons :     2
           Alpha electrons :     2
            Beta electrons :     0
          Charge           :     0
          Spin multiplicity:     3

 HvD: wfn1_inpdft
 HvD: nquad_task =                     1
 HvD: iangquad   =                     0
 HvD: gridtype   = user      
 HvD: leb        =  T
 HvD: radgrid    = murakn    
 HvD: trunc_neigh=  T
 HvD: lssw       =  T
 HvD: whichssw   = erf1    
 HvD: mxnrad     =                     0
 HvD: mxnang     =                     0
 HVD: wfn1: movecs_in  = atomic                                                                                                                                                                                                                                                          
 HVD: wfn1: movecs_out = ./wfn1_dat.movecs                                                                                                                                                                                                                                               

      Superposition of Atomic Density Guess
      -------------------------------------

 Sum of atomic energies:          -0.99646508

      Non-variational initial energy
      ------------------------------

 Total energy =      -0.682110
 1-e energy   =      -1.192762
 2-e energy   =       0.412504
 HOMO         =      -0.191331
 LUMO         =      -0.191041

 iteration              energy           error
 ---------              ------           -----
         0         -0.98469739        0.080000
         1         -0.98470111        0.080000
         2         -0.98543148        0.080000
         3         -0.98587055        0.080000
         4         -0.98706923        0.080000
         5         -0.98795698        0.080000
         6         -0.98899265        0.080000
         7         -0.98922606        0.080000
         8         -0.98951782        0.080000
         9         -0.98969484        0.080000
        10         -0.99080297        0.080000
        11         -0.99178453        0.080000
        12         -0.99268355        0.080000
        13         -0.99285351        0.080000
        14         -0.99314363        0.080000
        15         -0.99366958        0.080000
        16         -0.99388173        0.080000
        17         -0.99403905        0.080000
        18         -0.99404560        0.080000
        19         -0.99423194        0.080000
        20         -0.99488681        0.080000
        21         -0.99528311        0.080000
        22         -0.99545299        0.080000
        23         -0.99570132        0.080000
        24         -0.99586972        0.080000
        25         -0.99595432        0.080000
        26         -0.99621119        0.080000
        27         -0.99631655        0.080000
        28         -0.99633205        0.076951
        29         -0.99639493        0.076951
        30         -0.99642281        0.048474
        31         -0.99642478        0.029954
        32         -0.99642693        0.021592
        33         -0.99643934        0.021592
        34         -0.99644215        0.021592
        35         -0.99644631        0.021592
        36         -0.99645047        0.021592
        37         -0.99645137        0.021592
        38         -0.99645649        0.018509
        39         -0.99646011        0.014690
        40         -0.99646112        0.010589
        41         -0.99646158        0.010589
        42         -0.99646213        0.010589
        43         -0.99646312        0.009077
        44         -0.99646344        0.005718
        45         -0.99646352        0.005718
        46         -0.99646359        0.004902
        47         -0.99646367        0.004902
        48         -0.99646376        0.004283
        49         -0.99646397        0.004283
        50         -0.99646401        0.004283
        51         -0.99646409        0.004283
        52         -0.99646449        0.004283
        53         -0.99646455        0.004283
        54         -0.99646472        0.004283
        55         -0.99646516        0.004283
        56         -0.99646535        0.003743
        57         -0.99646543        0.003743
        58         -0.99646551        0.003087
        59         -0.99646553        0.002698
        60         -0.99646558        0.002698
        61         -0.99646560        0.002313
        62         -0.99646564        0.002021
        63         -0.99646571        0.001733
        64         -0.99646572        0.001485
        65         -0.99646575        0.001071
        66         -0.99646576        0.001071
        67         -0.99646576        0.001071
        68         -0.99646576        0.001071
        69         -0.99646578        0.001071
        70         -0.99646579        0.001071
        71         -0.99646581        0.001071
        72         -0.99646582        0.000918
        73         -0.99646582        0.000743
        74         -0.99646582        0.000637
        75         -0.99646583        0.000637
        76         -0.99646583        0.000546
        77         -0.99646583        0.000546
        78         -0.99646583        0.000337
        79         -0.99646583        0.000337
        80         -0.99646583        0.000337
        81         -0.99646583        0.000337
        82         -0.99646583        0.000208
        83         -0.99646583        0.000208
        84         -0.99646583        0.000189
        85         -0.99646584        0.000189
        86         -0.99646584        0.000189
        87         -0.99646584        0.000139
        88         -0.99646584        0.000104
        89         -0.99646584        0.000089
        90         -0.99646584        0.000064
        91         -0.99646584        0.000064
        92         -0.99646584        0.000064
        93         -0.99646584        0.000055
        94         -0.99646584        0.000055
        95         -0.99646584        0.000049
        96         -0.99646584        0.000043
        97         -0.99646584        0.000037
        98         -0.99646584        0.000037
        99         -0.99646584        0.000032
       100         -0.99646584        0.000032
       101         -0.99646584        0.000023
       102         -0.99646584        0.000023
       103         -0.99646584        0.000017
       104         -0.99646584        0.000017
       105         -0.99646584        0.000015
       106         -0.99646584        0.000015
       107         -0.99646584        0.000015
       108         -0.99646584        0.000013
       109         -0.99646584        0.000013
       110         -0.99646584        0.000013
       111         -0.99646584        0.000013
       112         -0.99646584        0.000013
       113         -0.99646584        0.000012
       114         -0.99646584        0.000012
       115         -0.99646584        0.000011
       116         -0.99646584        0.000011
       117         -0.99646584        0.000011
       118         -0.99646584        0.000009
       119         -0.99646584        0.000009
       120         -0.99646584        0.000005
       121         -0.99646584        0.000005
       122         -0.99646584        0.000005
       123         -0.99646584        0.000005
       124         -0.99646584        0.000005
       125         -0.99646584        0.000005
       126         -0.99646584        0.000005
       127         -0.99646584        0.000005
       128         -0.99646584        0.000004
       129         -0.99646584        0.000003
       130         -0.99646584        0.000002
       131         -0.99646584        0.000002
       132         -0.99646584        0.000002
       133         -0.99646584        0.000001
       134         -0.99646584        0.000001
       135         -0.99646584        0.000001
       136         -0.99646584        0.000001

 Reached Convergence

 WFN1                     :
 --------------------------
 Total WFN1 energy  =          -0.9964658366
 1-Electron energy  =          -1.1927618990
 2-Electron energy  =           0.0981480371
 Correlation energy =           0.0000000000
 DFT XC energy      =           0.0000000000
 Entropy energy     =           0.0000000000
 Nuclear energy     =           0.0981480253

 conventional Hartree-Fock:
 --------------------------
 Total SCF energy  =          -0.9964658366
 2-Electron energy =           0.0981480371

                WFN1 Final Natural orbital energies and occupations
                ---------------------------------------------------

              Alpha       Beta            Alpha       Beta  
            --------    --------        --------    --------
       1      0.0000      0.0000          1.0000      0.0000
       2      0.0000      0.0000          1.0000      0.0000
       3      0.0000      0.0000          0.0000      0.0000
       4      0.0000      0.0000          0.0000      0.0000

             WFN1 Final Correlation function energies and occupations
             --------------------------------------------------------

              Alpha       Beta            Alpha       Beta  
            --------    --------        --------    --------
       1      0.0000      0.0000          1.0000      0.0000
       2      0.0000      0.0000          1.0000      0.0000
       3      0.0000      0.0000          0.0000      0.0000
       4      0.0000      0.0000          0.0000      0.0000

                WFN1 Final alpha-alpha 2-matrix occupation numbers
                --------------------------------------------------


 global array: g_momo1[1:4,1:4],  handle: -990 

            1           2           3           4  
       ----------- ----------- ----------- -----------
   1       0.00000     1.00000     0.00000     0.00000
   2       1.00000     0.00000     0.00000     0.00000
   3       0.00000     0.00000     0.00000     0.00000
   4       0.00000     0.00000     0.00000    -0.00000

                 WFN1 Final beta-beta 2-matrix occupation numbers
                 ------------------------------------------------


 global array: g_momo2[1:4,1:4],  handle: -989 

            1           2           3           4  
       ----------- ----------- ----------- -----------
   1       0.00000     0.00000     0.00000     0.00000
   2       0.00000     0.00000     0.00000     0.00000
   3       0.00000     0.00000     0.00000     0.00000
   4       0.00000     0.00000     0.00000     0.00000

                  WFN1 Final alpha Correlation Function Analysis
                  ----------------------------------------------


 global array: Ca[1:4,1:4],  handle: -981 

                     1                       2                       3                       4  
       ----------------------- ----------------------- ----------------------- -----------------------
   1      -0.68242,   -0.05157    -0.72719,   -0.05319     0.00000,    0.00000    -0.00000,   -0.00000
   2       0.37717,   -0.62400    -0.35259,    0.58655     0.00000,    0.00000     0.00000,   -0.00000
   3      -0.00000,    0.00000     0.00000,    0.00000     0.46019,    0.51581     0.48164,    0.53869
   4      -0.00000,    0.00000     0.00000,    0.00000    -0.30534,    0.65493     0.29142,   -0.62682

                   WFN1 Final beta Correlation Function Analysis
                   ---------------------------------------------


 global array: Cb[1:4,1:4],  handle: -980 

                     1                       2                       3                       4  
       ----------------------- ----------------------- ----------------------- -----------------------
   1      -0.72066,    0.01407    -0.69117,    0.01318     0.00665,   -0.02435     0.00717,    0.04315
   2       0.40802,   -0.55499    -0.42701,    0.58207    -0.01360,    0.01078    -0.06364,   -0.00349
   3       0.05285,   -0.00257    -0.02826,   -0.00265     0.42711,    0.50211     0.48933,    0.56782
   4      -0.04843,   -0.02843    -0.01188,    0.00376    -0.30727,    0.68565     0.26644,   -0.60098

                     WFN1 Final Alpha Natural Orbital Analysis
                     -----------------------------------------

 Vector    1  Occ=1.000000D+00  E= 0.000000D+00
              MO Center=  0.0D+00,  0.0D+00,  4.4D-01, r^2= 7.9D+00
   Bfn.  Coefficient  Atom+Function         Bfn.  Coefficient  Atom+Function  
  ----- ------------  ---------------      ----- ------------  ---------------
     4     -0.507507  2 H  s                  2     -0.430555  1 H  s          
     3     -0.325841  2 H  s                  1     -0.276389  1 H  s          

 Vector    2  Occ=1.000000D+00  E= 0.000000D+00
              MO Center=  0.0D+00,  0.0D+00, -4.4D-01, r^2= 7.9D+00
   Bfn.  Coefficient  Atom+Function         Bfn.  Coefficient  Atom+Function  
  ----- ------------  ---------------      ----- ------------  ---------------
     2     -0.507390  1 H  s                  4      0.430418  2 H  s          
     1     -0.326045  1 H  s                  3      0.276630  2 H  s          

 Vector    3  Occ=6.806698D-15  E= 0.000000D+00
              MO Center=  0.0D+00,  0.0D+00,  3.6D-02, r^2= 8.5D+00
   Bfn.  Coefficient  Atom+Function         Bfn.  Coefficient  Atom+Function  
  ----- ------------  ---------------      ----- ------------  ---------------
     3      0.895253  2 H  s                  1      0.883405  1 H  s          
     4     -0.818139  2 H  s                  2     -0.807305  1 H  s          

 Vector    4  Occ=1.886341D-14  E= 0.000000D+00
              MO Center=  0.0D+00,  0.0D+00, -3.6D-02, r^2= 8.5D+00
   Bfn.  Coefficient  Atom+Function         Bfn.  Coefficient  Atom+Function  
  ----- ------------  ---------------      ----- ------------  ---------------
     1     -0.895350  1 H  s                  3      0.883503  2 H  s          
     2      0.818650  1 H  s                  4     -0.807823  2 H  s          


                     WFN1 Final Beta Natural Orbital Analysis
                     ----------------------------------------

 Vector    1  Occ=0.000000D+00  E= 0.000000D+00
              MO Center=  0.0D+00,  0.0D+00,  1.0D-01, r^2= 8.2D+00
   Bfn.  Coefficient  Atom+Function         Bfn.  Coefficient  Atom+Function  
  ----- ------------  ---------------      ----- ------------  ---------------
     2     -0.549130  1 H  s                  4     -0.547530  2 H  s          
     3     -0.230090  2 H  s                  1     -0.195643  1 H  s          

 Vector    2  Occ=0.000000D+00  E= 0.000000D+00
              MO Center=  0.0D+00,  0.0D+00, -1.0D-01, r^2= 8.2D+00
   Bfn.  Coefficient  Atom+Function         Bfn.  Coefficient  Atom+Function  
  ----- ------------  ---------------      ----- ------------  ---------------
     2     -0.545253  1 H  s                  4      0.502932  2 H  s          
     3      0.250364  2 H  s                  1     -0.232891  1 H  s          

 Vector    3  Occ=0.000000D+00  E= 0.000000D+00
              MO Center=  0.0D+00,  0.0D+00, -1.0D-02, r^2= 8.3D+00
   Bfn.  Coefficient  Atom+Function         Bfn.  Coefficient  Atom+Function  
  ----- ------------  ---------------      ----- ------------  ---------------
     1      0.919527  1 H  s                  3      0.910043  2 H  s          
     4     -0.768291  2 H  s                  2     -0.755950  1 H  s          

 Vector    4  Occ=0.000000D+00  E= 0.000000D+00
              MO Center=  0.0D+00,  0.0D+00,  1.0D-02, r^2= 8.4D+00
   Bfn.  Coefficient  Atom+Function         Bfn.  Coefficient  Atom+Function  
  ----- ------------  ---------------      ----- ------------  ---------------
     1     -0.909235  1 H  s                  3      0.906064  2 H  s          
     4     -0.788512  2 H  s                  2      0.771005  1 H  s          


 Task  times  cpu:       12.4s     wall:       17.3s
 Summary of allocated global arrays
-----------------------------------
  No active global arrays



                         GA Statistics for process    0
                         ------------------------------

       create   destroy   get      put      acc     scatter   gather  read&inc
calls:   44       44     7.91e+06 2.74e+04 2.17e+04    0        0       10     
number of processes/call 1.00e+00 1.00e+00 1.00e+00 0.00e+00 0.00e+00
bytes total:             1.02e+09 4.84e+06 3.46e+06 0.00e+00 0.00e+00 8.00e+01
bytes remote:            0.00e+00 0.00e+00 0.00e+00 0.00e+00 0.00e+00 0.00e+00
Max memory consumed for GA by this process: 10624 bytes
MA_summarize_allocated_blocks: starting scan ...
MA_summarize_allocated_blocks: scan completed: 0 heap blocks, 0 stack blocks
MA usage statistics:

	allocation statistics:
					      heap	     stack
					      ----	     -----
	current number of blocks	         0	         0
	maximum number of blocks	        19	        17
	current total bytes		         0	         0
	maximum total bytes		   3204328	  22508616
	maximum total K-bytes		      3205	     22509
	maximum total M-bytes		         4	        23


                                NWChem Input Module
                                -------------------





                                     CITATION
                                     --------
                Please cite the following reference when publishing
                           results obtained with NWChem:

                 M. Valiev, E.J. Bylaska, N. Govind, K. Kowalski,
              T.P. Straatsma, H.J.J. van Dam, D. Wang, J. Nieplocha,
                        E. Apra, T.L. Windus, W.A. de Jong
                 "NWChem: a comprehensive and scalable open-source
                  solution for large scale molecular simulations"
                      Comput. Phys. Commun. 181, 1477 (2010)
                           doi:10.1016/j.cpc.2010.04.018

                                      AUTHORS
                                      -------
          E. Apra, E. J. Bylaska, W. A. de Jong, N. Govind, K. Kowalski,
       T. P. Straatsma, M. Valiev, H. J. J. van Dam, D. Wang, T. L. Windus,
        J. Hammond, J. Autschbach, K. Bhaskaran-Nair, J. Brabec, K. Lopata,
    S. A. Fischer, S. Krishnamoorthy, M. Jacquelin, W. Ma, M. Klemm, O. Villa,
      Y. Chen, V. Anisimov, F. Aquino, S. Hirata, M. T. Hackler, V. Konjkov,
      T. Risthaus, M. Malagoli, A. Marenich, A. Otero-de-la-Roza, J. Mullin,
        P. Nichols, R. Peverati, J. Pittner, Y. Zhao, P.-D. Fan, A. Fonari,
       M. Williamson, R. J. Harrison, J. R. Rehr, M. Dupuis, D. Silverstein,
    D. M. A. Smith, J. Nieplocha, V. Tipparaju, M. Krishnan, B. E. Van Kuiken,
        A. Vazquez-Mayagoitia, L. Jensen, M. Swart, Q. Wu, T. Van Voorhis,
     A. A. Auer, M. Nooijen, L. D. Crosby, E. Brown, G. Cisneros, G. I. Fann,
   H. Fruchtl, J. Garza, K. Hirao, R. A. Kendall, J. A. Nichols, K. Tsemekhman,
    K. Wolinski, J. Anchell, D. E. Bernholdt, P. Borowski, T. Clark, D. Clerc,
   H. Dachsel, M. J. O. Deegan, K. Dyall, D. Elwood, E. Glendening, M. Gutowski,
   A. C. Hess, J. Jaffe, B. G. Johnson, J. Ju, R. Kobayashi, R. Kutteh, Z. Lin,
   R. Littlefield, X. Long, B. Meng, T. Nakajima, S. Niu, L. Pollack, M. Rosing,
   K. Glaesemann, G. Sandrone, M. Stave, H. Taylor, G. Thomas, J. H. van Lenthe,
                               A. T. Wong, Z. Zhang.

 Total times  cpu:       12.4s     wall:       17.4s
