 argument  1 = input-wf.nw



============================== echo of input deck ==============================
echo
start wfn1_dat
geometry units au noautoz
  H 0 0 -.74434600000000000000
  H 0 0  .74434600000000000000
  symmetry cs
end
basis
  H library 6-31g
end
set wfn1:input_vectors "atomic"
set wfn1:solver "monte-carlo"
set wfn1:print_error F
set wfn1:t_initial 0.1
set wfn1:nopen 2
#set wfn1:corr_expr "wfn1_mx"
set wfn1:corr_expr "wfn1c"
set wfn1:t_bath 0.0
set wfn1:maxit  20000
task wfn1 energy
================================================================================


                                         
                                         


              Northwest Computational Chemistry Package (NWChem) 6.8
              ------------------------------------------------------


                    Environmental Molecular Sciences Laboratory
                       Pacific Northwest National Laboratory
                                Richland, WA 99352

                              Copyright (c) 1994-2015
                       Pacific Northwest National Laboratory
                            Battelle Memorial Institute

             NWChem is an open-source computational chemistry package
                        distributed under the terms of the
                      Educational Community License (ECL) 2.0
             A copy of the license is included with this distribution
                              in the LICENSE.TXT file

                                  ACKNOWLEDGMENT
                                  --------------

            This software and its documentation were developed at the
            EMSL at Pacific Northwest National Laboratory, a multiprogram
            national laboratory, operated for the U.S. Department of Energy
            by Battelle under Contract Number DE-AC05-76RL01830. Support
            for this work was provided by the Department of Energy Office
            of Biological and Environmental Research, Office of Basic
            Energy Sciences, and the Office of Advanced Scientific Computing.


           Job information
           ---------------

    hostname        = erato
    program         = ../../../bin/LINUX64/nwchem
    date            = Sat Mar  6 01:17:49 2021

    compiled        = Sat_Mar_06_01:07:04_2021
    source          = /home/hvandam/nwchem-1-wfn1
    nwchem branch   = Development
    nwchem revision = nwchem_on_git-124-gad72d19fff205e319ffbbf2bca37a04ded6ad57b
    ga revision     = nwchem_on_git-124-gad72d19
    use scalapack   = F
    input           = input-wf.nw
    prefix          = wfn1_dat.
    data base       = ./wfn1_dat.db
    status          = startup
    nproc           =        1
    time left       =     -1s



           Memory information
           ------------------

    heap     =   13107198 doubles =    100.0 Mbytes
    stack    =   13107195 doubles =    100.0 Mbytes
    global   =   26214400 doubles =    200.0 Mbytes (distinct from heap & stack)
    total    =   52428793 doubles =    400.0 Mbytes
    verify   = yes
    hardfail = no 


           Directory information
           ---------------------

  0 permanent = .
  0 scratch   = .




                                NWChem Input Module
                                -------------------


 Turning off AUTOSYM since
 SYMMETRY directive was detected!



                             Geometry "geometry" -> ""
                             -------------------------

 Output coordinates in a.u. (scale by  1.000000000 to convert to a.u.)

  No.       Tag          Charge          X              Y              Z
 ---- ---------------- ---------- -------------- -------------- --------------
    1 H                    1.0000     0.00000000     0.00000000    -0.74434600
    2 H                    1.0000     0.00000000     0.00000000     0.74434600

      Atomic Mass 
      ----------- 

      H                  1.007825


 Effective nuclear repulsion energy (a.u.)       0.6717306199

            Nuclear Dipole moment (a.u.) 
            ----------------------------
        X                 Y               Z
 ---------------- ---------------- ----------------
     0.0000000000     0.0000000000     0.0000000000

      Symmetry information
      --------------------

 Group name             Cs        
 Group number              2
 Group order               2
 No. of unique centers     1

      Symmetry unique atoms

     1


            XYZ format geometry
            -------------------
     2
 geometry
 H                     0.00000000     0.00000000    -0.39389097
 H                     0.00000000     0.00000000     0.39389097

                      Basis "ao basis" -> "" (cartesian)
                      -----
  H (Hydrogen)
  ------------
            Exponent  Coefficients 
       -------------- ---------------------------------------------------------
  1 S  1.87311370E+01  0.033495
  1 S  2.82539370E+00  0.234727
  1 S  6.40121700E-01  0.813757

  2 S  1.61277800E-01  1.000000



 Summary of "ao basis" -> "" (cartesian)
 ------------------------------------------------------------------------------
       Tag                 Description            Shells   Functions and Types
 ---------------- ------------------------------  ------  ---------------------
 H                           6-31g                   2        2   2s



                                NWChem WFN1 Module
                                ------------------



          No. of electrons :     2
           Alpha electrons :     2
            Beta electrons :     0
          Charge           :     0
          Spin multiplicity:     3

 HvD: wfn1_inpdft
 HvD: nquad_task =                     1
 HvD: iangquad   =                     0
 HvD: gridtype   = user      
 HvD: leb        =  T
 HvD: radgrid    = murakn    
 HvD: trunc_neigh=  T
 HvD: lssw       =  T
 HvD: whichssw   = erf1    
 HvD: mxnrad     =                     0
 HvD: mxnang     =                     0
 HVD: wfn1: movecs_in  = atomic                                                                                                                                                                                                                                                          
 HVD: wfn1: movecs_out = ./wfn1_dat.movecs                                                                                                                                                                                                                                               

      Superposition of Atomic Density Guess
      -------------------------------------

 Sum of atomic energies:          -0.99646508

      Non-variational initial energy
      ------------------------------

 Total energy =      -0.842543
 1-e energy   =      -2.172643
 2-e energy   =       0.658369
 HOMO         =      -0.558054
 LUMO         =       0.161868

 iteration              energy           error
 ---------              ------           -----
         0         -0.75800202        0.080000
         1         -0.75958526        0.080000
         2         -0.76107654        0.080000
         3         -0.76272141        0.080000
         4         -0.76368456        0.080000
         5         -0.76452607        0.080000
         6         -0.76619289        0.080000
         7         -0.76646214        0.080000
         8         -0.76767529        0.080000
         9         -0.76804571        0.080000
        10         -0.76870791        0.080000
        11         -0.77056827        0.080000
        12         -0.77069650        0.080000
        13         -0.77388393        0.080000
        14         -0.77422319        0.080000
        15         -0.77456169        0.080000
        16         -0.77585042        0.080000
        17         -0.77649902        0.080000
        18         -0.77672478        0.080000
        19         -0.77767667        0.080000
        20         -0.77873060        0.080000
        21         -0.77888400        0.080000
        22         -0.77988912        0.080000
        23         -0.78044110        0.080000
        24         -0.78097382        0.080000
        25         -0.78108127        0.080000
        26         -0.78109286        0.080000
        27         -0.78110198        0.080000
        28         -0.78110994        0.080000
        29         -0.78132529        0.064708
        30         -0.78136192        0.064708
        31         -0.78137159        0.064708
        32         -0.78142595        0.064708
        33         -0.78143029        0.058766
        34         -0.78144144        0.058766
        35         -0.78151175        0.058766
        36         -0.78152455        0.058766
        37         -0.78157389        0.058766
        38         -0.78161080        0.058766
        39         -0.78164786        0.053369
        40         -0.78166251        0.042356
        41         -0.78166466        0.030532
        42         -0.78166524        0.030532
        43         -0.78166924        0.030532
        44         -0.78167778        0.030532
        45         -0.78168310        0.022009
        46         -0.78168643        0.022009
        47         -0.78169418        0.022009
        48         -0.78169505        0.016807
        49         -0.78169742        0.016807
        50         -0.78169752        0.010588
        51         -0.78169805        0.010588
        52         -0.78169873        0.010588
        53         -0.78169957        0.009252
        54         -0.78169958        0.009252
        55         -0.78170053        0.009252
        56         -0.78170177        0.009252
        57         -0.78170253        0.006931
        58         -0.78170278        0.006931
        59         -0.78170281        0.006295
        60         -0.78170293        0.005501
        61         -0.78170297        0.004715
        62         -0.78170300        0.004715
        63         -0.78170323        0.004715
        64         -0.78170327        0.004715
        65         -0.78170331        0.004715
        66         -0.78170332        0.003399
        67         -0.78170341        0.003399
        68         -0.78170348        0.003399
        69         -0.78170348        0.003399
        70         -0.78170356        0.002646
        71         -0.78170358        0.002021
        72         -0.78170366        0.002021
        73         -0.78170368        0.001732
        74         -0.78170369        0.001732
        75         -0.78170369        0.001732
        76         -0.78170370        0.001273
        77         -0.78170370        0.001134
        78         -0.78170370        0.001134
        79         -0.78170371        0.001134
        80         -0.78170373        0.000972
        81         -0.78170373        0.000866
        82         -0.78170373        0.000866
        83         -0.78170373        0.000866
        84         -0.78170374        0.000866
        85         -0.78170375        0.000866
        86         -0.78170375        0.000525
        87         -0.78170375        0.000525
        88         -0.78170376        0.000486
        89         -0.78170376        0.000486
        90         -0.78170376        0.000425
        91         -0.78170376        0.000371
        92         -0.78170376        0.000268
        93         -0.78170376        0.000268
        94         -0.78170376        0.000229
        95         -0.78170376        0.000229
        96         -0.78170376        0.000119
        97         -0.78170376        0.000119
        98         -0.78170376        0.000074
        99         -0.78170376        0.000074
       100         -0.78170376        0.000064
       101         -0.78170376        0.000056
       102         -0.78170376        0.000041
       103         -0.78170376        0.000041
       104         -0.78170376        0.000041
       105         -0.78170376        0.000041
       106         -0.78170376        0.000029
       107         -0.78170376        0.000029
       108         -0.78170376        0.000029
       109         -0.78170376        0.000029
       110         -0.78170376        0.000022
       111         -0.78170376        0.000022
       112         -0.78170376        0.000022
       113         -0.78170376        0.000017
       114         -0.78170376        0.000015
       115         -0.78170376        0.000015
       116         -0.78170376        0.000015
       117         -0.78170376        0.000013
       118         -0.78170376        0.000013
       119         -0.78170376        0.000013
       120         -0.78170376        0.000008
       121         -0.78170376        0.000008
       122         -0.78170376        0.000007
       123         -0.78170376        0.000007
       124         -0.78170376        0.000005
       125         -0.78170376        0.000005
       126         -0.78170376        0.000003
       127         -0.78170376        0.000003
       128         -0.78170376        0.000002
       129         -0.78170376        0.000002
       130         -0.78170376        0.000002
       131         -0.78170376        0.000002
       132         -0.78170376        0.000002
       133         -0.78170376        0.000002
       134         -0.78170376        0.000002
       135         -0.78170376        0.000002
       136         -0.78170376        0.000002
       137         -0.78170376        0.000002
       138         -0.78170376        0.000001

 Reached Convergence

 WFN1                     :
 --------------------------
 Total WFN1 energy  =          -0.7817037643
 1-Electron energy  =          -1.8374977572
 2-Electron energy  =           0.3840633730
 Correlation energy =           0.0000000000
 DFT XC energy      =           0.0000000000
 Entropy energy     =           0.0000000000
 Nuclear energy     =           0.6717306199

 conventional Hartree-Fock:
 --------------------------
 Total SCF energy  =          -0.7817037643
 2-Electron energy =           0.3840633730

                WFN1 Final Natural orbital energies and occupations
                ---------------------------------------------------

              Alpha       Beta            Alpha       Beta  
            --------    --------        --------    --------
       1      0.0000      0.0000          1.0000      0.0000
       2      0.0000      0.0000          1.0000      0.0000
       3      0.0000      0.0000          0.0000      0.0000
       4      0.0000      0.0000          0.0000      0.0000

             WFN1 Final Correlation function energies and occupations
             --------------------------------------------------------

              Alpha       Beta            Alpha       Beta  
            --------    --------        --------    --------
       1      0.0000      0.0000          1.0000      0.0000
       2      0.0000      0.0000          1.0000      0.0000
       3      0.0000      0.0000          0.0000      0.0000
       4      0.0000      0.0000          0.0000      0.0000

                WFN1 Final alpha-alpha 2-matrix occupation numbers
                --------------------------------------------------


 global array: g_momo1[1:4,1:4],  handle: -990 

            1           2           3           4  
       ----------- ----------- ----------- -----------
   1       0.00000     1.00000     0.00000     0.00000
   2       1.00000    -0.00000     0.00000     0.00000
   3       0.00000     0.00000    -0.00000     0.00000
   4       0.00000     0.00000     0.00000     0.00000

                 WFN1 Final beta-beta 2-matrix occupation numbers
                 ------------------------------------------------


 global array: g_momo2[1:4,1:4],  handle: -989 

            1           2           3           4  
       ----------- ----------- ----------- -----------
   1       0.00000     0.00000     0.00000     0.00000
   2       0.00000     0.00000     0.00000     0.00000
   3       0.00000     0.00000     0.00000     0.00000
   4       0.00000     0.00000     0.00000     0.00000

                  WFN1 Final alpha Correlation Function Analysis
                  ----------------------------------------------


 global array: Ca[1:4,1:4],  handle: -981 

                     1                       2                       3                       4  
       ----------------------- ----------------------- ----------------------- -----------------------
   1       0.99716,    0.04464    -0.06025,   -0.00637     0.00000,    0.00000     0.00000,    0.00000
   2       0.05971,   -0.01030     0.99210,   -0.10983     0.00000,   -0.00000     0.00000,   -0.00000
   3       0.00000,    0.00000    -0.00000,    0.00000     0.72025,   -0.68919    -0.07118,    0.03440
   4      -0.00000,   -0.00000     0.00000,   -0.00000     0.06426,    0.04604     0.59210,    0.80198

                   WFN1 Final beta Correlation Function Analysis
                   ---------------------------------------------


 global array: Cb[1:4,1:4],  handle: -980 

                     1                       2                       3                       4  
       ----------------------- ----------------------- ----------------------- -----------------------
   1       0.99595,    0.04379     0.01113,    0.02258     0.01796,    0.03105     0.02128,   -0.06165
   2      -0.00739,    0.02818     0.98843,   -0.10791    -0.04303,   -0.02262    -0.08895,   -0.01508
   3       0.01466,    0.03573     0.00899,   -0.03734     0.71269,   -0.69165    -0.03039,    0.09900
   4       0.03381,   -0.05187     0.07560,    0.05940     0.01407,    0.09922     0.58118,    0.79945

                     WFN1 Final Alpha Natural Orbital Analysis
                     -----------------------------------------

 Vector    1  Occ=1.000000D+00  E= 0.000000D+00
              MO Center=  0.0D+00,  0.0D+00,  4.3D-02, r^2= 6.6D-01
   Bfn.  Coefficient  Atom+Function         Bfn.  Coefficient  Atom+Function  
  ----- ------------  ---------------      ----- ------------  ---------------
     3      0.393383  2 H  s                  1      0.369580  1 H  s          
     4      0.283380  2 H  s                  2      0.170214  1 H  s          

 Vector    2  Occ=1.000000D+00  E= 0.000000D+00
              MO Center=  0.0D+00,  0.0D+00, -4.3D-02, r^2= 1.7D+00
   Bfn.  Coefficient  Atom+Function         Bfn.  Coefficient  Atom+Function  
  ----- ------------  ---------------      ----- ------------  ---------------
     2      1.395922  1 H  s                  4     -1.377413  2 H  s          
     1      0.307239  1 H  s                  3     -0.276107  2 H  s          

 Vector    3  Occ=1.184535D-14  E= 0.000000D+00
              MO Center=  0.0D+00,  0.0D+00, -5.4D-02, r^2= 1.7D+00
   Bfn.  Coefficient  Atom+Function         Bfn.  Coefficient  Atom+Function  
  ----- ------------  ---------------      ----- ------------  ---------------
     1      0.805660  1 H  s                  2     -0.778543  1 H  s          
     3      0.710456  2 H  s                  4     -0.639668  2 H  s          

 Vector    4  Occ=7.313373D-15  E= 0.000000D+00
              MO Center=  0.0D+00,  0.0D+00,  5.4D-02, r^2= 1.4D+00
   Bfn.  Coefficient  Atom+Function         Bfn.  Coefficient  Atom+Function  
  ----- ------------  ---------------      ----- ------------  ---------------
     4      1.568943  2 H  s                  2     -1.504868  1 H  s          
     3     -1.087861  2 H  s                  1      1.019363  1 H  s          


                     WFN1 Final Beta Natural Orbital Analysis
                     ----------------------------------------

 Vector    1  Occ=0.000000D+00  E= 0.000000D+00
              MO Center=  0.0D+00,  0.0D+00, -6.7D-02, r^2= 8.7D-01
   Bfn.  Coefficient  Atom+Function         Bfn.  Coefficient  Atom+Function  
  ----- ------------  ---------------      ----- ------------  ---------------
     2      0.429609  1 H  s                  1      0.265453  1 H  s          
     3      0.265325  2 H  s                  4      0.227463  2 H  s          

 Vector    2  Occ=0.000000D+00  E= 0.000000D+00
              MO Center=  0.0D+00,  0.0D+00,  6.6D-02, r^2= 2.0D+00
   Bfn.  Coefficient  Atom+Function         Bfn.  Coefficient  Atom+Function  
  ----- ------------  ---------------      ----- ------------  ---------------
     4     -1.626322  2 H  s                  2      1.591062  1 H  s          
     3     -0.140010  2 H  s                  1      0.106320  1 H  s          

 Vector    3  Occ=0.000000D+00  E= 0.000000D+00
              MO Center=  0.0D+00,  0.0D+00,  6.9D-02, r^2= 1.5D+00
   Bfn.  Coefficient  Atom+Function         Bfn.  Coefficient  Atom+Function  
  ----- ------------  ---------------      ----- ------------  ---------------
     3      0.873739  2 H  s                  4     -0.753105  2 H  s          
     1      0.736337  1 H  s                  2     -0.581828  1 H  s          

 Vector    4  Occ=0.000000D+00  E= 0.000000D+00
              MO Center=  0.0D+00,  0.0D+00, -6.8D-02, r^2= 1.1D+00
   Bfn.  Coefficient  Atom+Function         Bfn.  Coefficient  Atom+Function  
  ----- ------------  ---------------      ----- ------------  ---------------
     2     -1.339315  1 H  s                  4      1.258768  2 H  s          
     1      1.138074  1 H  s                  3     -1.032354  2 H  s          


 Task  times  cpu:       15.9s     wall:       26.5s
 Summary of allocated global arrays
-----------------------------------
  No active global arrays



                         GA Statistics for process    0
                         ------------------------------

       create   destroy   get      put      acc     scatter   gather  read&inc
calls:   44       44     8.07e+06 2.79e+04 2.21e+04    0        0       11     
number of processes/call 1.00e+00 1.00e+00 1.00e+00 0.00e+00 0.00e+00
bytes total:             1.04e+09 4.93e+06 3.52e+06 0.00e+00 0.00e+00 8.80e+01
bytes remote:            0.00e+00 0.00e+00 0.00e+00 0.00e+00 0.00e+00 0.00e+00
Max memory consumed for GA by this process: 10624 bytes
MA_summarize_allocated_blocks: starting scan ...
MA_summarize_allocated_blocks: scan completed: 0 heap blocks, 0 stack blocks
MA usage statistics:

	allocation statistics:
					      heap	     stack
					      ----	     -----
	current number of blocks	         0	         0
	maximum number of blocks	        19	        17
	current total bytes		         0	         0
	maximum total bytes		   3204344	  22508664
	maximum total K-bytes		      3205	     22509
	maximum total M-bytes		         4	        23


                                NWChem Input Module
                                -------------------





                                     CITATION
                                     --------
                Please cite the following reference when publishing
                           results obtained with NWChem:

                 M. Valiev, E.J. Bylaska, N. Govind, K. Kowalski,
              T.P. Straatsma, H.J.J. van Dam, D. Wang, J. Nieplocha,
                        E. Apra, T.L. Windus, W.A. de Jong
                 "NWChem: a comprehensive and scalable open-source
                  solution for large scale molecular simulations"
                      Comput. Phys. Commun. 181, 1477 (2010)
                           doi:10.1016/j.cpc.2010.04.018

                                      AUTHORS
                                      -------
          E. Apra, E. J. Bylaska, W. A. de Jong, N. Govind, K. Kowalski,
       T. P. Straatsma, M. Valiev, H. J. J. van Dam, D. Wang, T. L. Windus,
        J. Hammond, J. Autschbach, K. Bhaskaran-Nair, J. Brabec, K. Lopata,
    S. A. Fischer, S. Krishnamoorthy, M. Jacquelin, W. Ma, M. Klemm, O. Villa,
      Y. Chen, V. Anisimov, F. Aquino, S. Hirata, M. T. Hackler, V. Konjkov,
      T. Risthaus, M. Malagoli, A. Marenich, A. Otero-de-la-Roza, J. Mullin,
        P. Nichols, R. Peverati, J. Pittner, Y. Zhao, P.-D. Fan, A. Fonari,
       M. Williamson, R. J. Harrison, J. R. Rehr, M. Dupuis, D. Silverstein,
    D. M. A. Smith, J. Nieplocha, V. Tipparaju, M. Krishnan, B. E. Van Kuiken,
        A. Vazquez-Mayagoitia, L. Jensen, M. Swart, Q. Wu, T. Van Voorhis,
     A. A. Auer, M. Nooijen, L. D. Crosby, E. Brown, G. Cisneros, G. I. Fann,
   H. Fruchtl, J. Garza, K. Hirao, R. A. Kendall, J. A. Nichols, K. Tsemekhman,
    K. Wolinski, J. Anchell, D. E. Bernholdt, P. Borowski, T. Clark, D. Clerc,
   H. Dachsel, M. J. O. Deegan, K. Dyall, D. Elwood, E. Glendening, M. Gutowski,
   A. C. Hess, J. Jaffe, B. G. Johnson, J. Ju, R. Kobayashi, R. Kutteh, Z. Lin,
   R. Littlefield, X. Long, B. Meng, T. Nakajima, S. Niu, L. Pollack, M. Rosing,
   K. Glaesemann, G. Sandrone, M. Stave, H. Taylor, G. Thomas, J. H. van Lenthe,
                               A. T. Wong, Z. Zhang.

 Total times  cpu:       16.0s     wall:       26.5s
