 argument  1 = input-wf.nw



============================== echo of input deck ==============================
echo
start wfn1_dat
geometry units au noautoz
  H 0 0 -1.14434600000000000000
  H 0 0  1.14434600000000000000
  symmetry cs
end
basis
  H library 6-31g
end
set wfn1:input_vectors "atomic"
set wfn1:solver "monte-carlo"
set wfn1:print_error F
set wfn1:t_initial 0.1
set wfn1:nopen 2
#set wfn1:corr_expr "wfn1_mx"
set wfn1:corr_expr "wfn1c"
set wfn1:t_bath 0.0
set wfn1:maxit  20000
task wfn1 energy
================================================================================


                                         
                                         


              Northwest Computational Chemistry Package (NWChem) 6.8
              ------------------------------------------------------


                    Environmental Molecular Sciences Laboratory
                       Pacific Northwest National Laboratory
                                Richland, WA 99352

                              Copyright (c) 1994-2015
                       Pacific Northwest National Laboratory
                            Battelle Memorial Institute

             NWChem is an open-source computational chemistry package
                        distributed under the terms of the
                      Educational Community License (ECL) 2.0
             A copy of the license is included with this distribution
                              in the LICENSE.TXT file

                                  ACKNOWLEDGMENT
                                  --------------

            This software and its documentation were developed at the
            EMSL at Pacific Northwest National Laboratory, a multiprogram
            national laboratory, operated for the U.S. Department of Energy
            by Battelle under Contract Number DE-AC05-76RL01830. Support
            for this work was provided by the Department of Energy Office
            of Biological and Environmental Research, Office of Basic
            Energy Sciences, and the Office of Advanced Scientific Computing.


           Job information
           ---------------

    hostname        = erato
    program         = ../../../bin/LINUX64/nwchem
    date            = Sat Mar  6 01:20:45 2021

    compiled        = Sat_Mar_06_01:07:04_2021
    source          = /home/hvandam/nwchem-1-wfn1
    nwchem branch   = Development
    nwchem revision = nwchem_on_git-124-gad72d19fff205e319ffbbf2bca37a04ded6ad57b
    ga revision     = nwchem_on_git-124-gad72d19
    use scalapack   = F
    input           = input-wf.nw
    prefix          = wfn1_dat.
    data base       = ./wfn1_dat.db
    status          = startup
    nproc           =        1
    time left       =     -1s



           Memory information
           ------------------

    heap     =   13107196 doubles =    100.0 Mbytes
    stack    =   13107201 doubles =    100.0 Mbytes
    global   =   26214400 doubles =    200.0 Mbytes (distinct from heap & stack)
    total    =   52428797 doubles =    400.0 Mbytes
    verify   = yes
    hardfail = no 


           Directory information
           ---------------------

  0 permanent = .
  0 scratch   = .




                                NWChem Input Module
                                -------------------


 Turning off AUTOSYM since
 SYMMETRY directive was detected!



                             Geometry "geometry" -> ""
                             -------------------------

 Output coordinates in a.u. (scale by  1.000000000 to convert to a.u.)

  No.       Tag          Charge          X              Y              Z
 ---- ---------------- ---------- -------------- -------------- --------------
    1 H                    1.0000     0.00000000     0.00000000    -1.14434600
    2 H                    1.0000     0.00000000     0.00000000     1.14434600

      Atomic Mass 
      ----------- 

      H                  1.007825


 Effective nuclear repulsion energy (a.u.)       0.4369307884

            Nuclear Dipole moment (a.u.) 
            ----------------------------
        X                 Y               Z
 ---------------- ---------------- ----------------
     0.0000000000     0.0000000000     0.0000000000

      Symmetry information
      --------------------

 Group name             Cs        
 Group number              2
 Group order               2
 No. of unique centers     1

      Symmetry unique atoms

     1


            XYZ format geometry
            -------------------
     2
 geometry
 H                     0.00000000     0.00000000    -0.60556187
 H                     0.00000000     0.00000000     0.60556187

                      Basis "ao basis" -> "" (cartesian)
                      -----
  H (Hydrogen)
  ------------
            Exponent  Coefficients 
       -------------- ---------------------------------------------------------
  1 S  1.87311370E+01  0.033495
  1 S  2.82539370E+00  0.234727
  1 S  6.40121700E-01  0.813757

  2 S  1.61277800E-01  1.000000



 Summary of "ao basis" -> "" (cartesian)
 ------------------------------------------------------------------------------
       Tag                 Description            Shells   Functions and Types
 ---------------- ------------------------------  ------  ---------------------
 H                           6-31g                   2        2   2s



                                NWChem WFN1 Module
                                ------------------



          No. of electrons :     2
           Alpha electrons :     2
            Beta electrons :     0
          Charge           :     0
          Spin multiplicity:     3

 HvD: wfn1_inpdft
 HvD: nquad_task =                     1
 HvD: iangquad   =                     0
 HvD: gridtype   = user      
 HvD: leb        =  T
 HvD: radgrid    = murakn    
 HvD: trunc_neigh=  T
 HvD: lssw       =  T
 HvD: whichssw   = erf1    
 HvD: mxnrad     =                     0
 HvD: mxnang     =                     0
 HVD: wfn1: movecs_in  = atomic                                                                                                                                                                                                                                                          
 HVD: wfn1: movecs_out = ./wfn1_dat.movecs                                                                                                                                                                                                                                               

      Superposition of Atomic Density Guess
      -------------------------------------

 Sum of atomic energies:          -0.99646508

      Non-variational initial energy
      ------------------------------

 Total energy =      -0.766205
 1-e energy   =      -1.843659
 2-e energy   =       0.640523
 HOMO         =      -0.404333
 LUMO         =       0.041226

 iteration              energy           error
 ---------              ------           -----
         0         -0.90073857        0.080000
         1         -0.90103784        0.080000
         2         -0.90190194        0.080000
         3         -0.90423416        0.080000
         4         -0.90492368        0.080000
         5         -0.90698088        0.080000
         6         -0.90768902        0.080000
         7         -0.90799353        0.080000
         8         -0.90947014        0.080000
         9         -0.91102543        0.080000
        10         -0.91181665        0.080000
        11         -0.91187549        0.080000
        12         -0.91235674        0.080000
        13         -0.91298771        0.080000
        14         -0.91298961        0.080000
        15         -0.91432968        0.080000
        16         -0.91535303        0.080000
        17         -0.91554625        0.080000
        18         -0.91557825        0.080000
        19         -0.91632139        0.080000
        20         -0.91641994        0.080000
        21         -0.91642542        0.080000
        22         -0.91666994        0.080000
        23         -0.91671426        0.080000
        24         -0.91680675        0.080000
        25         -0.91705900        0.080000
        26         -0.91708088        0.080000
        27         -0.91708248        0.080000
        28         -0.91709055        0.080000
        29         -0.91709260        0.078446
        30         -0.91709480        0.078446
        31         -0.91726270        0.069885
        32         -0.91728293        0.061071
        33         -0.91729377        0.061071
        34         -0.91731516        0.061071
        35         -0.91735639        0.044023
        36         -0.91743117        0.044023
        37         -0.91743926        0.039218
        38         -0.91744036        0.034272
        39         -0.91745957        0.034272
        40         -0.91746172        0.034272
        41         -0.91746365        0.020774
        42         -0.91746504        0.020774
        43         -0.91747145        0.015562
        44         -0.91747367        0.015562
        45         -0.91747691        0.013600
        46         -0.91747941        0.013600
        47         -0.91748166        0.013600
        48         -0.91748289        0.013600
        49         -0.91748296        0.009994
        50         -0.91748338        0.006418
        51         -0.91748349        0.006418
        52         -0.91748355        0.004626
        53         -0.91748358        0.004626
        54         -0.91748390        0.004043
        55         -0.91748403        0.004043
        56         -0.91748418        0.004043
        57         -0.91748424        0.003533
        58         -0.91748465        0.003533
        59         -0.91748468        0.003533
        60         -0.91748480        0.002647
        61         -0.91748482        0.002358
        62         -0.91748483        0.002021
        63         -0.91748484        0.001457
        64         -0.91748486        0.001457
        65         -0.91748488        0.001457
        66         -0.91748488        0.001457
        67         -0.91748491        0.001249
        68         -0.91748492        0.001134
        69         -0.91748492        0.001134
        70         -0.91748492        0.001134
        71         -0.91748493        0.001134
        72         -0.91748493        0.001134
        73         -0.91748493        0.000688
        74         -0.91748493        0.000535
        75         -0.91748494        0.000535
        76         -0.91748494        0.000535
        77         -0.91748494        0.000535
        78         -0.91748494        0.000459
        79         -0.91748494        0.000459
        80         -0.91748495        0.000459
        81         -0.91748495        0.000417
        82         -0.91748495        0.000262
        83         -0.91748495        0.000262
        84         -0.91748495        0.000262
        85         -0.91748495        0.000262
        86         -0.91748495        0.000262
        87         -0.91748495        0.000225
        88         -0.91748495        0.000208
        89         -0.91748495        0.000208
        90         -0.91748495        0.000208
        91         -0.91748495        0.000179
        92         -0.91748495        0.000159
        93         -0.91748495        0.000159
        94         -0.91748495        0.000136
        95         -0.91748495        0.000136
        96         -0.91748495        0.000119
        97         -0.91748495        0.000104
        98         -0.91748495        0.000104
        99         -0.91748495        0.000089
       100         -0.91748495        0.000078
       101         -0.91748495        0.000078
       102         -0.91748495        0.000056
       103         -0.91748495        0.000056
       104         -0.91748495        0.000056
       105         -0.91748495        0.000056
       106         -0.91748495        0.000056
       107         -0.91748495        0.000049
       108         -0.91748495        0.000049
       109         -0.91748495        0.000038
       110         -0.91748495        0.000038
       111         -0.91748495        0.000033
       112         -0.91748495        0.000033
       113         -0.91748495        0.000029
       114         -0.91748495        0.000026
       115         -0.91748495        0.000026
       116         -0.91748495        0.000026
       117         -0.91748495        0.000022
       118         -0.91748495        0.000022
       119         -0.91748495        0.000014
       120         -0.91748495        0.000012
       121         -0.91748495        0.000010
       122         -0.91748495        0.000010
       123         -0.91748495        0.000010
       124         -0.91748495        0.000009
       125         -0.91748495        0.000009
       126         -0.91748495        0.000008
       127         -0.91748495        0.000008
       128         -0.91748495        0.000008
       129         -0.91748495        0.000008
       130         -0.91748495        0.000008
       131         -0.91748495        0.000006
       132         -0.91748495        0.000006
       133         -0.91748495        0.000006
       134         -0.91748495        0.000006
       135         -0.91748495        0.000003
       136         -0.91748495        0.000003
       137         -0.91748495        0.000003
       138         -0.91748495        0.000002
       139         -0.91748495        0.000002
       140         -0.91748495        0.000002
       141         -0.91748495        0.000002
       142         -0.91748495        0.000002
       143         -0.91748495        0.000001
       144         -0.91748495        0.000001
       145         -0.91748495        0.000001
       146         -0.91748495        0.000001
       147         -0.91748495        0.000001
       148         -0.91748495        0.000001
       149         -0.91748495        0.000001
       150         -0.91748495        0.000001

 Reached Convergence

 WFN1                     :
 --------------------------
 Total WFN1 energy  =          -0.9174849546
 1-Electron energy  =          -1.6913583737
 2-Electron energy  =           0.3369426307
 Correlation energy =           0.0000000000
 DFT XC energy      =           0.0000000000
 Entropy energy     =           0.0000000000
 Nuclear energy     =           0.4369307884

 conventional Hartree-Fock:
 --------------------------
 Total SCF energy  =          -0.9174849546
 2-Electron energy =           0.3369426307

                WFN1 Final Natural orbital energies and occupations
                ---------------------------------------------------

              Alpha       Beta            Alpha       Beta  
            --------    --------        --------    --------
       1      0.0000      0.0000          1.0000      0.0000
       2      0.0000      0.0000          1.0000      0.0000
       3      0.0000      0.0000          0.0000      0.0000
       4      0.0000      0.0000          0.0000      0.0000

             WFN1 Final Correlation function energies and occupations
             --------------------------------------------------------

              Alpha       Beta            Alpha       Beta  
            --------    --------        --------    --------
       1      0.0000      0.0000          1.0000      0.0000
       2      0.0000      0.0000          1.0000      0.0000
       3      0.0000      0.0000          0.0000      0.0000
       4      0.0000      0.0000          0.0000      0.0000

                WFN1 Final alpha-alpha 2-matrix occupation numbers
                --------------------------------------------------


 global array: g_momo1[1:4,1:4],  handle: -990 

            1           2           3           4  
       ----------- ----------- ----------- -----------
   1      -0.00000     1.00000     0.00000     0.00000
   2       1.00000     0.00000     0.00000     0.00000
   3       0.00000     0.00000     0.00000     0.00000
   4       0.00000     0.00000     0.00000     0.00000

                 WFN1 Final beta-beta 2-matrix occupation numbers
                 ------------------------------------------------


 global array: g_momo2[1:4,1:4],  handle: -989 

            1           2           3           4  
       ----------- ----------- ----------- -----------
   1       0.00000     0.00000     0.00000     0.00000
   2       0.00000     0.00000     0.00000     0.00000
   3       0.00000     0.00000     0.00000     0.00000
   4       0.00000     0.00000     0.00000     0.00000

                  WFN1 Final alpha Correlation Function Analysis
                  ----------------------------------------------


 global array: Ca[1:4,1:4],  handle: -981 

                     1                       2                       3                       4  
       ----------------------- ----------------------- ----------------------- -----------------------
   1      -0.79494,    0.59972     0.07586,   -0.05149     0.00000,    0.00000    -0.00000,    0.00000
   2       0.01651,    0.09018     0.13016,    0.98724     0.00000,    0.00000    -0.00000,   -0.00000
   3       0.00000,   -0.00000     0.00000,    0.00000     0.64301,    0.44544     0.51148,    0.35567
   4      -0.00000,   -0.00000     0.00000,    0.00000    -0.57646,   -0.23624     0.72328,    0.29791

                   WFN1 Final beta Correlation Function Analysis
                   ---------------------------------------------


 global array: Cb[1:4,1:4],  handle: -980 

                     1                       2                       3                       4  
       ----------------------- ----------------------- ----------------------- -----------------------
   1      -0.78785,    0.59583     0.11194,   -0.07899    -0.03011,    0.00653    -0.01709,    0.06533
   2       0.02370,    0.13714     0.12972,    0.98092    -0.01421,   -0.03401    -0.01316,   -0.00780
   3      -0.03375,   -0.03636     0.02515,    0.03711     0.67612,    0.45493     0.47987,    0.31806
   4      -0.01028,   -0.04842    -0.01228,    0.00548    -0.52816,   -0.23378     0.74877,    0.32111

                     WFN1 Final Alpha Natural Orbital Analysis
                     -----------------------------------------

 Vector    1  Occ=1.000000D+00  E= 0.000000D+00
              MO Center=  0.0D+00,  0.0D+00,  2.9D-04, r^2= 9.9D-01
   Bfn.  Coefficient  Atom+Function         Bfn.  Coefficient  Atom+Function  
  ----- ------------  ---------------      ----- ------------  ---------------
     2      0.326010  1 H  s                  4      0.326345  2 H  s          
     1      0.320315  1 H  s                  3      0.320448  2 H  s          

 Vector    2  Occ=1.000000D+00  E= 0.000000D+00
              MO Center=  0.0D+00,  0.0D+00, -2.9D-04, r^2= 1.6D+00
   Bfn.  Coefficient  Atom+Function         Bfn.  Coefficient  Atom+Function  
  ----- ------------  ---------------      ----- ------------  ---------------
     2     -0.821689  1 H  s                  4      0.821556  2 H  s          
     1     -0.326726  1 H  s                  3      0.326596  2 H  s          

 Vector    3  Occ=1.189862D-15  E= 0.000000D+00
              MO Center=  0.0D+00,  0.0D+00, -3.8D-02, r^2= 1.7D+00
   Bfn.  Coefficient  Atom+Function         Bfn.  Coefficient  Atom+Function  
  ----- ------------  ---------------      ----- ------------  ---------------
     1     -0.919341  1 H  s                  3     -0.875498  2 H  s          
     2      0.751737  1 H  s                  4      0.689962  2 H  s          

 Vector    4  Occ=5.549979D-15  E= 0.000000D+00
              MO Center=  0.0D+00,  0.0D+00,  3.8D-02, r^2= 2.0D+00
   Bfn.  Coefficient  Atom+Function         Bfn.  Coefficient  Atom+Function  
  ----- ------------  ---------------      ----- ------------  ---------------
     4      1.282760  2 H  s                  2     -1.247562  1 H  s          
     3     -0.919826  2 H  s                  1      0.876007  1 H  s          


                     WFN1 Final Beta Natural Orbital Analysis
                     ----------------------------------------

 Vector    1  Occ=0.000000D+00  E= 0.000000D+00
              MO Center=  0.0D+00,  0.0D+00,  5.6D-02, r^2= 1.0D+00
   Bfn.  Coefficient  Atom+Function         Bfn.  Coefficient  Atom+Function  
  ----- ------------  ---------------      ----- ------------  ---------------
     2      0.378412  1 H  s                  3      0.358649  2 H  s          
     4      0.313768  2 H  s                  1      0.228084  1 H  s          

 Vector    2  Occ=0.000000D+00  E= 0.000000D+00
              MO Center=  0.0D+00,  0.0D+00, -7.1D-02, r^2= 1.9D+00
   Bfn.  Coefficient  Atom+Function         Bfn.  Coefficient  Atom+Function  
  ----- ------------  ---------------      ----- ------------  ---------------
     2     -1.010329  1 H  s                  4      0.945739  2 H  s          
     3      0.219408  2 H  s                  1     -0.194465  1 H  s          

 Vector    3  Occ=0.000000D+00  E= 0.000000D+00
              MO Center=  0.0D+00,  0.0D+00, -7.5D-02, r^2= 1.7D+00
   Bfn.  Coefficient  Atom+Function         Bfn.  Coefficient  Atom+Function  
  ----- ------------  ---------------      ----- ------------  ---------------
     1     -0.967397  1 H  s                  3     -0.844717  2 H  s          
     2      0.751273  1 H  s                  4      0.664948  2 H  s          

 Vector    4  Occ=0.000000D+00  E= 0.000000D+00
              MO Center=  0.0D+00,  0.0D+00,  8.9D-02, r^2= 1.7D+00
   Bfn.  Coefficient  Atom+Function         Bfn.  Coefficient  Atom+Function  
  ----- ------------  ---------------      ----- ------------  ---------------
     4      1.211588  2 H  s                  2     -1.083791  1 H  s          
     3     -0.965201  2 H  s                  1      0.892319  1 H  s          


 Task  times  cpu:       15.6s     wall:       24.2s
 Summary of allocated global arrays
-----------------------------------
  No active global arrays



                         GA Statistics for process    0
                         ------------------------------

       create   destroy   get      put      acc     scatter   gather  read&inc
calls:   44       44     8.49e+06 2.93e+04 2.33e+04    0        0       11     
number of processes/call 1.00e+00 1.00e+00 1.00e+00 0.00e+00 0.00e+00
bytes total:             1.09e+09 5.19e+06 3.71e+06 0.00e+00 0.00e+00 8.80e+01
bytes remote:            0.00e+00 0.00e+00 0.00e+00 0.00e+00 0.00e+00 0.00e+00
Max memory consumed for GA by this process: 10624 bytes
MA_summarize_allocated_blocks: starting scan ...
MA_summarize_allocated_blocks: scan completed: 0 heap blocks, 0 stack blocks
MA usage statistics:

	allocation statistics:
					      heap	     stack
					      ----	     -----
	current number of blocks	         0	         0
	maximum number of blocks	        19	        17
	current total bytes		         0	         0
	maximum total bytes		   3204360	  22508648
	maximum total K-bytes		      3205	     22509
	maximum total M-bytes		         4	        23


                                NWChem Input Module
                                -------------------





                                     CITATION
                                     --------
                Please cite the following reference when publishing
                           results obtained with NWChem:

                 M. Valiev, E.J. Bylaska, N. Govind, K. Kowalski,
              T.P. Straatsma, H.J.J. van Dam, D. Wang, J. Nieplocha,
                        E. Apra, T.L. Windus, W.A. de Jong
                 "NWChem: a comprehensive and scalable open-source
                  solution for large scale molecular simulations"
                      Comput. Phys. Commun. 181, 1477 (2010)
                           doi:10.1016/j.cpc.2010.04.018

                                      AUTHORS
                                      -------
          E. Apra, E. J. Bylaska, W. A. de Jong, N. Govind, K. Kowalski,
       T. P. Straatsma, M. Valiev, H. J. J. van Dam, D. Wang, T. L. Windus,
        J. Hammond, J. Autschbach, K. Bhaskaran-Nair, J. Brabec, K. Lopata,
    S. A. Fischer, S. Krishnamoorthy, M. Jacquelin, W. Ma, M. Klemm, O. Villa,
      Y. Chen, V. Anisimov, F. Aquino, S. Hirata, M. T. Hackler, V. Konjkov,
      T. Risthaus, M. Malagoli, A. Marenich, A. Otero-de-la-Roza, J. Mullin,
        P. Nichols, R. Peverati, J. Pittner, Y. Zhao, P.-D. Fan, A. Fonari,
       M. Williamson, R. J. Harrison, J. R. Rehr, M. Dupuis, D. Silverstein,
    D. M. A. Smith, J. Nieplocha, V. Tipparaju, M. Krishnan, B. E. Van Kuiken,
        A. Vazquez-Mayagoitia, L. Jensen, M. Swart, Q. Wu, T. Van Voorhis,
     A. A. Auer, M. Nooijen, L. D. Crosby, E. Brown, G. Cisneros, G. I. Fann,
   H. Fruchtl, J. Garza, K. Hirao, R. A. Kendall, J. A. Nichols, K. Tsemekhman,
    K. Wolinski, J. Anchell, D. E. Bernholdt, P. Borowski, T. Clark, D. Clerc,
   H. Dachsel, M. J. O. Deegan, K. Dyall, D. Elwood, E. Glendening, M. Gutowski,
   A. C. Hess, J. Jaffe, B. G. Johnson, J. Ju, R. Kobayashi, R. Kutteh, Z. Lin,
   R. Littlefield, X. Long, B. Meng, T. Nakajima, S. Niu, L. Pollack, M. Rosing,
   K. Glaesemann, G. Sandrone, M. Stave, H. Taylor, G. Thomas, J. H. van Lenthe,
                               A. T. Wong, Z. Zhang.

 Total times  cpu:       15.6s     wall:       24.2s
