 argument  1 = input-wf.nw



============================== echo of input deck ==============================
echo
start wfn1_dat
geometry units au noautoz
  H 0 0 -.34434600000000000000
  H 0 0  .34434600000000000000
  symmetry cs
end
basis
  H library 6-31g
end
set wfn1:input_vectors "atomic"
set wfn1:solver "monte-carlo"
set wfn1:print_error F
set wfn1:t_initial 0.1
set wfn1:nopen 2
#set wfn1:corr_expr "wfn1_mx"
set wfn1:corr_expr "wfn1c"
set wfn1:t_bath 0.0
set wfn1:maxit  20000
task wfn1 energy
================================================================================


                                         
                                         


              Northwest Computational Chemistry Package (NWChem) 6.8
              ------------------------------------------------------


                    Environmental Molecular Sciences Laboratory
                       Pacific Northwest National Laboratory
                                Richland, WA 99352

                              Copyright (c) 1994-2015
                       Pacific Northwest National Laboratory
                            Battelle Memorial Institute

             NWChem is an open-source computational chemistry package
                        distributed under the terms of the
                      Educational Community License (ECL) 2.0
             A copy of the license is included with this distribution
                              in the LICENSE.TXT file

                                  ACKNOWLEDGMENT
                                  --------------

            This software and its documentation were developed at the
            EMSL at Pacific Northwest National Laboratory, a multiprogram
            national laboratory, operated for the U.S. Department of Energy
            by Battelle under Contract Number DE-AC05-76RL01830. Support
            for this work was provided by the Department of Energy Office
            of Biological and Environmental Research, Office of Basic
            Energy Sciences, and the Office of Advanced Scientific Computing.


           Job information
           ---------------

    hostname        = erato
    program         = ../../../bin/LINUX64/nwchem
    date            = Sat Mar  6 01:14:31 2021

    compiled        = Sat_Mar_06_01:07:04_2021
    source          = /home/hvandam/nwchem-1-wfn1
    nwchem branch   = Development
    nwchem revision = nwchem_on_git-124-gad72d19fff205e319ffbbf2bca37a04ded6ad57b
    ga revision     = nwchem_on_git-124-gad72d19
    use scalapack   = F
    input           = input-wf.nw
    prefix          = wfn1_dat.
    data base       = ./wfn1_dat.db
    status          = startup
    nproc           =        1
    time left       =     -1s



           Memory information
           ------------------

    heap     =   13107200 doubles =    100.0 Mbytes
    stack    =   13107197 doubles =    100.0 Mbytes
    global   =   26214400 doubles =    200.0 Mbytes (distinct from heap & stack)
    total    =   52428797 doubles =    400.0 Mbytes
    verify   = yes
    hardfail = no 


           Directory information
           ---------------------

  0 permanent = .
  0 scratch   = .




                                NWChem Input Module
                                -------------------


 Turning off AUTOSYM since
 SYMMETRY directive was detected!



                             Geometry "geometry" -> ""
                             -------------------------

 Output coordinates in a.u. (scale by  1.000000000 to convert to a.u.)

  No.       Tag          Charge          X              Y              Z
 ---- ---------------- ---------- -------------- -------------- --------------
    1 H                    1.0000     0.00000000     0.00000000    -0.34434600
    2 H                    1.0000     0.00000000     0.00000000     0.34434600

      Atomic Mass 
      ----------- 

      H                  1.007825


 Effective nuclear repulsion energy (a.u.)       1.4520279022

            Nuclear Dipole moment (a.u.) 
            ----------------------------
        X                 Y               Z
 ---------------- ---------------- ----------------
     0.0000000000     0.0000000000     0.0000000000

      Symmetry information
      --------------------

 Group name             Cs        
 Group number              2
 Group order               2
 No. of unique centers     1

      Symmetry unique atoms

     1


            XYZ format geometry
            -------------------
     2
 geometry
 H                     0.00000000     0.00000000    -0.18222007
 H                     0.00000000     0.00000000     0.18222007

 ==============================================================================
                                internuclear distances
 ------------------------------------------------------------------------------
       center one      |      center two      | atomic units |       a.u.
 ------------------------------------------------------------------------------
    2 H                |   1 H                |     0.68869  |     0.68869
 ------------------------------------------------------------------------------
                         number of included internuclear distances:          1
 ==============================================================================



  atoms                     2  and                     1  are similar
  atom                     2  coordinates   0.0000000000000000        0.0000000000000000       0.34434600000000076     
  atom                     1  coordinates   0.0000000000000000        0.0000000000000000      -0.34434600000000076     
                      Basis "ao basis" -> "" (cartesian)
                      -----
  H (Hydrogen)
  ------------
            Exponent  Coefficients 
       -------------- ---------------------------------------------------------
  1 S  1.87311370E+01  0.033495
  1 S  2.82539370E+00  0.234727
  1 S  6.40121700E-01  0.813757

  2 S  1.61277800E-01  1.000000



 Summary of "ao basis" -> "" (cartesian)
 ------------------------------------------------------------------------------
       Tag                 Description            Shells   Functions and Types
 ---------------- ------------------------------  ------  ---------------------
 H                           6-31g                   2        2   2s



                                NWChem WFN1 Module
                                ------------------



          No. of electrons :     2
           Alpha electrons :     2
            Beta electrons :     0
          Charge           :     0
          Spin multiplicity:     3

 HvD: wfn1_inpdft
 HvD: nquad_task =                     1
 HvD: iangquad   =                     0
 HvD: gridtype   = user      
 HvD: leb        =  T
 HvD: radgrid    = murakn    
 HvD: trunc_neigh=  T
 HvD: lssw       =  T
 HvD: whichssw   = erf1    
 HvD: mxnrad     =                     0
 HvD: mxnang     =                     0
 HVD: wfn1: movecs_in  = atomic                                                                                                                                                                                                                                                          
 HVD: wfn1: movecs_out = ./wfn1_dat.movecs                                                                                                                                                                                                                                               

      Superposition of Atomic Density Guess
      -------------------------------------

 Sum of atomic energies:          -0.99646508

      Non-variational initial energy
      ------------------------------

 Total energy =      -0.572438
 1-e energy   =      -2.668300
 2-e energy   =       0.643834
 HOMO         =      -0.820439
 LUMO         =       0.261591

 iteration              energy           error
 ---------              ------           -----
         0         -0.19852903        0.080000
         1         -0.20092582        0.080000
         2         -0.20155498        0.080000
         3         -0.20161963        0.080000
         4         -0.20565457        0.080000
         5         -0.20711992        0.080000
         6         -0.20735907        0.080000
         7         -0.20749548        0.080000
         8         -0.20818679        0.080000
         9         -0.21181373        0.080000
        10         -0.21220645        0.080000
        11         -0.21570179        0.080000
        12         -0.21613278        0.080000
        13         -0.21629303        0.080000
        14         -0.22067297        0.080000
        15         -0.22097994        0.080000
        16         -0.22178678        0.080000
        17         -0.22473681        0.080000
        18         -0.22805390        0.080000
        19         -0.22977223        0.080000
        20         -0.23145616        0.080000
        21         -0.23147064        0.080000
        22         -0.23153090        0.080000
        23         -0.23378398        0.080000
        24         -0.23441728        0.080000
        25         -0.23445953        0.080000
        26         -0.23452922        0.080000
        27         -0.23466180        0.080000
        28         -0.23502063        0.080000
        29         -0.23649539        0.080000
        30         -0.23704753        0.080000
        31         -0.23868641        0.080000
        32         -0.23881175        0.080000
        33         -0.23895891        0.080000
        34         -0.23900630        0.080000
        35         -0.23903296        0.080000
        36         -0.23942785        0.080000
        37         -0.23949739        0.080000
        38         -0.23960011        0.080000
        39         -0.23967663        0.080000
        40         -0.24009267        0.080000
        41         -0.24034727        0.080000
        42         -0.24062453        0.080000
        43         -0.24069896        0.080000
        44         -0.24096081        0.080000
        45         -0.24110520        0.080000
        46         -0.24138426        0.080000
        47         -0.24159247        0.080000
        48         -0.24167468        0.080000
        49         -0.24183081        0.080000
        50         -0.24186104        0.080000
        51         -0.24187916        0.080000
        52         -0.24188651        0.080000
        53         -0.24197648        0.062242
        54         -0.24203479        0.046627
        55         -0.24203818        0.039970
        56         -0.24211640        0.039970
        57         -0.24213263        0.039970
        58         -0.24220249        0.039970
        59         -0.24224134        0.034264
        60         -0.24227852        0.034264
        61         -0.24228369        0.034264
        62         -0.24228488        0.034264
        63         -0.24230266        0.034264
        64         -0.24232093        0.034264
        65         -0.24232251        0.034264
        66         -0.24233097        0.034264
        67         -0.24233202        0.031117
        68         -0.24233634        0.031117
        69         -0.24234254        0.021581
        70         -0.24234702        0.021581
        71         -0.24235254        0.021581
        72         -0.24235614        0.021581
        73         -0.24236224        0.021581
        74         -0.24236586        0.021581
        75         -0.24237317        0.021581
        76         -0.24239159        0.021581
        77         -0.24239726        0.018859
        78         -0.24240284        0.018859
        79         -0.24240553        0.013080
        80         -0.24240649        0.013080
        81         -0.24240820        0.013080
        82         -0.24241132        0.013080
        83         -0.24241532        0.013080
        84         -0.24241919        0.013080
        85         -0.24242135        0.011430
        86         -0.24242308        0.010788
        87         -0.24242570        0.010788
        88         -0.24242611        0.010788
        89         -0.24242674        0.010788
        90         -0.24242997        0.010788
        91         -0.24243026        0.010788
        92         -0.24243128        0.009248
        93         -0.24243132        0.009248
        94         -0.24243139        0.006172
        95         -0.24243151        0.006172
        96         -0.24243184        0.006172
        97         -0.24243188        0.006172
        98         -0.24243240        0.006172
        99         -0.24243260        0.006172
       100         -0.24243313        0.005393
       101         -0.24243360        0.005393
       102         -0.24243382        0.003599
       103         -0.24243382        0.003599
       104         -0.24243432        0.003599
       105         -0.24243439        0.003599
       106         -0.24243476        0.002645
       107         -0.24243489        0.002645
       108         -0.24243506        0.002402
       109         -0.24243508        0.002402
       110         -0.24243513        0.002402
       111         -0.24243514        0.002402
       112         -0.24243518        0.002099
       113         -0.24243519        0.002099
       114         -0.24243520        0.002099
       115         -0.24243523        0.001906
       116         -0.24243538        0.001698
       117         -0.24243538        0.001698
       118         -0.24243538        0.001456
       119         -0.24243538        0.001272
       120         -0.24243545        0.001272
       121         -0.24243547        0.001272
       122         -0.24243547        0.001272
       123         -0.24243548        0.001272
       124         -0.24243549        0.001272
       125         -0.24243549        0.001272
       126         -0.24243551        0.001091
       127         -0.24243552        0.001091
       128         -0.24243554        0.001091
       129         -0.24243557        0.001091
       130         -0.24243560        0.001049
       131         -0.24243561        0.000953
       132         -0.24243563        0.000953
       133         -0.24243563        0.000817
       134         -0.24243564        0.000714
       135         -0.24243564        0.000612
       136         -0.24243564        0.000612
       137         -0.24243564        0.000612
       138         -0.24243564        0.000612
       139         -0.24243565        0.000612
       140         -0.24243565        0.000612
       141         -0.24243565        0.000371
       142         -0.24243565        0.000371
       143         -0.24243566        0.000294
       144         -0.24243566        0.000294
       145         -0.24243566        0.000257
       146         -0.24243566        0.000257
       147         -0.24243566        0.000225
       148         -0.24243566        0.000225
       149         -0.24243566        0.000225
       150         -0.24243566        0.000196
       151         -0.24243566        0.000147
       152         -0.24243566        0.000147
       153         -0.24243566        0.000126
       154         -0.24243566        0.000126
       155         -0.24243566        0.000110
       156         -0.24243566        0.000110
       157         -0.24243566        0.000110
       158         -0.24243566        0.000110
       159         -0.24243566        0.000110
       160         -0.24243566        0.000110
       161         -0.24243566        0.000110
       162         -0.24243566        0.000096
       163         -0.24243566        0.000096
       164         -0.24243566        0.000096
       165         -0.24243566        0.000066
       166         -0.24243566        0.000066
       167         -0.24243566        0.000066
       168         -0.24243566        0.000058
       169         -0.24243566        0.000058
       170         -0.24243566        0.000058
       171         -0.24243566        0.000058
       172         -0.24243566        0.000058
       173         -0.24243566        0.000052
       174         -0.24243566        0.000052
       175         -0.24243566        0.000052
       176         -0.24243566        0.000048
       177         -0.24243566        0.000048
       178         -0.24243566        0.000048
       179         -0.24243566        0.000043
       180         -0.24243566        0.000038
       181         -0.24243566        0.000038
       182         -0.24243566        0.000038
       183         -0.24243566        0.000033
       184         -0.24243566        0.000033
       185         -0.24243566        0.000029
       186         -0.24243566        0.000029
       187         -0.24243566        0.000029
       188         -0.24243566        0.000029
       189         -0.24243566        0.000029
       190         -0.24243566        0.000021
       191         -0.24243566        0.000020
       192         -0.24243566        0.000017
       193         -0.24243566        0.000017
       194         -0.24243566        0.000017
       195         -0.24243566        0.000015
       196         -0.24243566        0.000015
       197         -0.24243566        0.000015
       198         -0.24243566        0.000015
       199         -0.24243566        0.000015
       200         -0.24243566        0.000015
       201         -0.24243566        0.000015
       202         -0.24243566        0.000015
       203         -0.24243566        0.000009
       204         -0.24243566        0.000008
       205         -0.24243566        0.000006
       206         -0.24243566        0.000006
       207         -0.24243566        0.000006
       208         -0.24243566        0.000006
       209         -0.24243566        0.000006
       210         -0.24243566        0.000006
       211         -0.24243566        0.000006
       212         -0.24243566        0.000006
       213         -0.24243566        0.000005
       214         -0.24243566        0.000005
       215         -0.24243566        0.000004
       216         -0.24243566        0.000004
       217         -0.24243566        0.000003
       218         -0.24243566        0.000002
       219         -0.24243566        0.000002
       220         -0.24243566        0.000002
       221         -0.24243566        0.000002
       222         -0.24243566        0.000002
       223         -0.24243566        0.000002
       224         -0.24243566        0.000002
       225         -0.24243566        0.000002
       226         -0.24243566        0.000002
       227         -0.24243566        0.000002
       228         -0.24243566        0.000001
       229         -0.24243566        0.000001
       230         -0.24243566        0.000001
       231         -0.24243566        0.000001
       232         -0.24243566        0.000001
       233         -0.24243566        0.000001
       234         -0.24243566        0.000001
       235         -0.24243566        0.000001
       236         -0.24243566        0.000001
       237         -0.24243566        0.000001
       238         -0.24243566        0.000001
       239         -0.24243566        0.000001
       240         -0.24243566        0.000001
       241         -0.24243566        0.000001

 Reached Convergence

 WFN1                     :
 --------------------------
 Total WFN1 energy  =          -0.2424356638
 1-Electron energy  =          -2.1027087749
 2-Electron energy  =           0.4082452089
 Correlation energy =           0.0000000000
 DFT XC energy      =           0.0000000000
 Entropy energy     =           0.0000000000
 Nuclear energy     =           1.4520279022

 conventional Hartree-Fock:
 --------------------------
 Total SCF energy  =          -0.2424356638
 2-Electron energy =           0.4082452089

                WFN1 Final Natural orbital energies and occupations
                ---------------------------------------------------

              Alpha       Beta            Alpha       Beta  
            --------    --------        --------    --------
       1      0.0000      0.0000          1.0000      0.0000
       2      0.0000      0.0000          1.0000      0.0000
       3      0.0000      0.0000          0.0000      0.0000
       4      0.0000      0.0000          0.0000      0.0000

             WFN1 Final Correlation function energies and occupations
             --------------------------------------------------------

              Alpha       Beta            Alpha       Beta  
            --------    --------        --------    --------
       1      0.0000      0.0000          1.0000      0.0000
       2      0.0000      0.0000          1.0000      0.0000
       3      0.0000      0.0000          0.0000      0.0000
       4      0.0000      0.0000          0.0000      0.0000

                WFN1 Final alpha-alpha 2-matrix occupation numbers
                --------------------------------------------------


 global array: g_momo1[1:4,1:4],  handle: -990 

            1           2           3           4  
       ----------- ----------- ----------- -----------
   1      -0.00000     1.00000     0.00000     0.00000
   2       1.00000     0.00000     0.00000     0.00000
   3       0.00000     0.00000     0.00000     0.00000
   4       0.00000     0.00000     0.00000     0.00000

                 WFN1 Final beta-beta 2-matrix occupation numbers
                 ------------------------------------------------


 global array: g_momo2[1:4,1:4],  handle: -989 

            1           2           3           4  
       ----------- ----------- ----------- -----------
   1       0.00000     0.00000     0.00000     0.00000
   2       0.00000     0.00000     0.00000     0.00000
   3       0.00000     0.00000     0.00000     0.00000
   4       0.00000     0.00000     0.00000     0.00000

                  WFN1 Final alpha Correlation Function Analysis
                  ----------------------------------------------


 global array: Ca[1:4,1:4],  handle: -977 

                     1                       2                       3                       4  
       ----------------------- ----------------------- ----------------------- -----------------------
   1      -0.95162,    0.30571     0.01752,    0.02570     0.00000,   -0.00000     0.00000,    0.00000
   2      -0.00972,   -0.02954     0.82172,   -0.56904    -0.00000,   -0.00000    -0.00000,    0.00000
   3       0.00000,   -0.00000    -0.00000,   -0.00000     0.50528,   -0.85932     0.05852,   -0.05325
   4       0.00000,   -0.00000     0.00000,    0.00000    -0.07845,   -0.01026     0.90569,    0.41650

                   WFN1 Final beta Correlation Function Analysis
                   ---------------------------------------------


 global array: Cb[1:4,1:4],  handle: -976 

                     1                       2                       3                       4  
       ----------------------- ----------------------- ----------------------- -----------------------
   1      -0.93760,    0.28767     0.06736,   -0.05984    -0.08264,    0.14098     0.02002,   -0.05420
   2       0.13394,   -0.01961     0.76558,   -0.54945    -0.22071,    0.20655    -0.04733,   -0.00666
   3      -0.11992,    0.03334     0.19984,   -0.25146     0.47817,   -0.80545     0.05732,   -0.02562
   4       0.02539,    0.06083     0.01941,   -0.01790    -0.06334,    0.02261     0.90377,    0.41669

                     WFN1 Final Alpha Natural Orbital Analysis
                     -----------------------------------------

 Vector    1  Occ=1.000000D+00  E= 0.000000D+00
              MO Center=  0.0D+00,  0.0D+00,  3.6D-03, r^2= 3.5D-01
   Bfn.  Coefficient  Atom+Function         Bfn.  Coefficient  Atom+Function  
  ----- ------------  ---------------      ----- ------------  ---------------
     3      0.463583  2 H  s                  1      0.461141  1 H  s          
     4      0.104405  2 H  s                  2      0.062917  1 H  s          

 Vector    2  Occ=1.000000D+00  E= 0.000000D+00
              MO Center=  0.0D+00,  0.0D+00, -3.6D-03, r^2= 2.0D+00
   Bfn.  Coefficient  Atom+Function         Bfn.  Coefficient  Atom+Function  
  ----- ------------  ---------------      ----- ------------  ---------------
     2      3.415939  1 H  s                  4     -3.414922  2 H  s          
     1      0.203872  1 H  s                  3     -0.198256  2 H  s          

 Vector    3  Occ=7.682286D-14  E= 0.000000D+00
              MO Center=  0.0D+00,  0.0D+00,  3.9D-02, r^2= 1.7D+00
   Bfn.  Coefficient  Atom+Function         Bfn.  Coefficient  Atom+Function  
  ----- ------------  ---------------      ----- ------------  ---------------
     4     -0.811640  2 H  s                  3      0.646240  2 H  s          
     2     -0.547592  1 H  s                  1      0.439197  1 H  s          

 Vector    4  Occ=1.069430D-14  E= 0.000000D+00
              MO Center=  0.0D+00,  0.0D+00, -3.9D-02, r^2= 8.2D-01
   Bfn.  Coefficient  Atom+Function         Bfn.  Coefficient  Atom+Function  
  ----- ------------  ---------------      ----- ------------  ---------------
     2      2.386385  1 H  s                  4     -2.309964  2 H  s          
     1     -1.871758  1 H  s                  3      1.810730  2 H  s          


                     WFN1 Final Beta Natural Orbital Analysis
                     ----------------------------------------

 Vector    1  Occ=0.000000D+00  E= 0.000000D+00
              MO Center=  0.0D+00,  0.0D+00,  2.5D-02, r^2= 5.4D-01
   Bfn.  Coefficient  Atom+Function         Bfn.  Coefficient  Atom+Function  
  ----- ------------  ---------------      ----- ------------  ---------------
     1      0.382372  1 H  s                  4      0.375426  2 H  s          
     3      0.326191  2 H  s                  2      0.038940  1 H  s          

 Vector    2  Occ=0.000000D+00  E= 0.000000D+00
              MO Center=  0.0D+00,  0.0D+00, -7.3D-02, r^2= 2.1D+00
   Bfn.  Coefficient  Atom+Function         Bfn.  Coefficient  Atom+Function  
  ----- ------------  ---------------      ----- ------------  ---------------
     2      3.548134  1 H  s                  4     -3.488448  2 H  s          
     3     -0.121567  2 H  s                  1      0.105701  1 H  s          

 Vector    3  Occ=0.000000D+00  E= 0.000000D+00
              MO Center=  0.0D+00,  0.0D+00,  6.1D-02, r^2= 1.6D+00
   Bfn.  Coefficient  Atom+Function         Bfn.  Coefficient  Atom+Function  
  ----- ------------  ---------------      ----- ------------  ---------------
     4     -0.830277  2 H  s                  3      0.664680  2 H  s          
     1      0.573992  1 H  s                  2     -0.475223  1 H  s          

 Vector    4  Occ=0.000000D+00  E= 0.000000D+00
              MO Center=  0.0D+00,  0.0D+00, -1.3D-02, r^2= 7.4D-01
   Bfn.  Coefficient  Atom+Function         Bfn.  Coefficient  Atom+Function  
  ----- ------------  ---------------      ----- ------------  ---------------
     2      2.202426  1 H  s                  4     -2.160489  2 H  s          
     1     -1.861112  1 H  s                  3      1.840545  2 H  s          


 Task  times  cpu:       20.3s     wall:       29.8s
 Summary of allocated global arrays
-----------------------------------
  No active global arrays



                         GA Statistics for process    0
                         ------------------------------

       create   destroy   get      put      acc     scatter   gather  read&inc
calls:   44       44     1.11e+07 3.82e+04 3.03e+04    0        0       11     
number of processes/call 1.00e+00 1.00e+00 1.00e+00 0.00e+00 0.00e+00
bytes total:             1.42e+09 6.78e+06 4.84e+06 0.00e+00 0.00e+00 8.80e+01
bytes remote:            0.00e+00 0.00e+00 0.00e+00 0.00e+00 0.00e+00 0.00e+00
Max memory consumed for GA by this process: 10624 bytes
MA_summarize_allocated_blocks: starting scan ...
MA_summarize_allocated_blocks: scan completed: 0 heap blocks, 0 stack blocks
MA usage statistics:

	allocation statistics:
					      heap	     stack
					      ----	     -----
	current number of blocks	         0	         0
	maximum number of blocks	        19	        17
	current total bytes		         0	         0
	maximum total bytes		   3204328	  22508616
	maximum total K-bytes		      3205	     22509
	maximum total M-bytes		         4	        23


                                NWChem Input Module
                                -------------------





                                     CITATION
                                     --------
                Please cite the following reference when publishing
                           results obtained with NWChem:

                 M. Valiev, E.J. Bylaska, N. Govind, K. Kowalski,
              T.P. Straatsma, H.J.J. van Dam, D. Wang, J. Nieplocha,
                        E. Apra, T.L. Windus, W.A. de Jong
                 "NWChem: a comprehensive and scalable open-source
                  solution for large scale molecular simulations"
                      Comput. Phys. Commun. 181, 1477 (2010)
                           doi:10.1016/j.cpc.2010.04.018

                                      AUTHORS
                                      -------
          E. Apra, E. J. Bylaska, W. A. de Jong, N. Govind, K. Kowalski,
       T. P. Straatsma, M. Valiev, H. J. J. van Dam, D. Wang, T. L. Windus,
        J. Hammond, J. Autschbach, K. Bhaskaran-Nair, J. Brabec, K. Lopata,
    S. A. Fischer, S. Krishnamoorthy, M. Jacquelin, W. Ma, M. Klemm, O. Villa,
      Y. Chen, V. Anisimov, F. Aquino, S. Hirata, M. T. Hackler, V. Konjkov,
      T. Risthaus, M. Malagoli, A. Marenich, A. Otero-de-la-Roza, J. Mullin,
        P. Nichols, R. Peverati, J. Pittner, Y. Zhao, P.-D. Fan, A. Fonari,
       M. Williamson, R. J. Harrison, J. R. Rehr, M. Dupuis, D. Silverstein,
    D. M. A. Smith, J. Nieplocha, V. Tipparaju, M. Krishnan, B. E. Van Kuiken,
        A. Vazquez-Mayagoitia, L. Jensen, M. Swart, Q. Wu, T. Van Voorhis,
     A. A. Auer, M. Nooijen, L. D. Crosby, E. Brown, G. Cisneros, G. I. Fann,
   H. Fruchtl, J. Garza, K. Hirao, R. A. Kendall, J. A. Nichols, K. Tsemekhman,
    K. Wolinski, J. Anchell, D. E. Bernholdt, P. Borowski, T. Clark, D. Clerc,
   H. Dachsel, M. J. O. Deegan, K. Dyall, D. Elwood, E. Glendening, M. Gutowski,
   A. C. Hess, J. Jaffe, B. G. Johnson, J. Ju, R. Kobayashi, R. Kutteh, Z. Lin,
   R. Littlefield, X. Long, B. Meng, T. Nakajima, S. Niu, L. Pollack, M. Rosing,
   K. Glaesemann, G. Sandrone, M. Stave, H. Taylor, G. Thomas, J. H. van Lenthe,
                               A. T. Wong, Z. Zhang.

 Total times  cpu:       20.3s     wall:       29.8s
