 argument  1 = input-wf.nw



============================== echo of input deck ==============================
echo
start wfn1_dat
geometry units au noautoz
  H 0 0 -.44434600000000000000
  H 0 0  .44434600000000000000
  symmetry cs
end
basis
  H library 6-31g
end
set wfn1:input_vectors "atomic"
set wfn1:solver "monte-carlo"
set wfn1:print_error F
set wfn1:t_initial 0.1
set wfn1:nopen 2
#set wfn1:corr_expr "wfn1_mx"
set wfn1:corr_expr "wfn1c"
set wfn1:t_bath 0.0
set wfn1:maxit  20000
task wfn1 energy
================================================================================


                                         
                                         


              Northwest Computational Chemistry Package (NWChem) 6.8
              ------------------------------------------------------


                    Environmental Molecular Sciences Laboratory
                       Pacific Northwest National Laboratory
                                Richland, WA 99352

                              Copyright (c) 1994-2015
                       Pacific Northwest National Laboratory
                            Battelle Memorial Institute

             NWChem is an open-source computational chemistry package
                        distributed under the terms of the
                      Educational Community License (ECL) 2.0
             A copy of the license is included with this distribution
                              in the LICENSE.TXT file

                                  ACKNOWLEDGMENT
                                  --------------

            This software and its documentation were developed at the
            EMSL at Pacific Northwest National Laboratory, a multiprogram
            national laboratory, operated for the U.S. Department of Energy
            by Battelle under Contract Number DE-AC05-76RL01830. Support
            for this work was provided by the Department of Energy Office
            of Biological and Environmental Research, Office of Basic
            Energy Sciences, and the Office of Advanced Scientific Computing.


           Job information
           ---------------

    hostname        = erato
    program         = ../../../bin/LINUX64/nwchem
    date            = Sat Mar  6 01:15:30 2021

    compiled        = Sat_Mar_06_01:07:04_2021
    source          = /home/hvandam/nwchem-1-wfn1
    nwchem branch   = Development
    nwchem revision = nwchem_on_git-124-gad72d19fff205e319ffbbf2bca37a04ded6ad57b
    ga revision     = nwchem_on_git-124-gad72d19
    use scalapack   = F
    input           = input-wf.nw
    prefix          = wfn1_dat.
    data base       = ./wfn1_dat.db
    status          = startup
    nproc           =        1
    time left       =     -1s



           Memory information
           ------------------

    heap     =   13107200 doubles =    100.0 Mbytes
    stack    =   13107197 doubles =    100.0 Mbytes
    global   =   26214400 doubles =    200.0 Mbytes (distinct from heap & stack)
    total    =   52428797 doubles =    400.0 Mbytes
    verify   = yes
    hardfail = no 


           Directory information
           ---------------------

  0 permanent = .
  0 scratch   = .




                                NWChem Input Module
                                -------------------


 Turning off AUTOSYM since
 SYMMETRY directive was detected!



                             Geometry "geometry" -> ""
                             -------------------------

 Output coordinates in a.u. (scale by  1.000000000 to convert to a.u.)

  No.       Tag          Charge          X              Y              Z
 ---- ---------------- ---------- -------------- -------------- --------------
    1 H                    1.0000     0.00000000     0.00000000    -0.44434600
    2 H                    1.0000     0.00000000     0.00000000     0.44434600

      Atomic Mass 
      ----------- 

      H                  1.007825


 Effective nuclear repulsion energy (a.u.)       1.1252492427

            Nuclear Dipole moment (a.u.) 
            ----------------------------
        X                 Y               Z
 ---------------- ---------------- ----------------
     0.0000000000     0.0000000000     0.0000000000

      Symmetry information
      --------------------

 Group name             Cs        
 Group number              2
 Group order               2
 No. of unique centers     1

      Symmetry unique atoms

     1


            XYZ format geometry
            -------------------
     2
 geometry
 H                     0.00000000     0.00000000    -0.23513779
 H                     0.00000000     0.00000000     0.23513779

 ==============================================================================
                                internuclear distances
 ------------------------------------------------------------------------------
       center one      |      center two      | atomic units |       a.u.
 ------------------------------------------------------------------------------
    2 H                |   1 H                |     0.88869  |     0.88869
 ------------------------------------------------------------------------------
                         number of included internuclear distances:          1
 ==============================================================================



                      Basis "ao basis" -> "" (cartesian)
                      -----
  H (Hydrogen)
  ------------
            Exponent  Coefficients 
       -------------- ---------------------------------------------------------
  1 S  1.87311370E+01  0.033495
  1 S  2.82539370E+00  0.234727
  1 S  6.40121700E-01  0.813757

  2 S  1.61277800E-01  1.000000



 Summary of "ao basis" -> "" (cartesian)
 ------------------------------------------------------------------------------
       Tag                 Description            Shells   Functions and Types
 ---------------- ------------------------------  ------  ---------------------
 H                           6-31g                   2        2   2s



                                NWChem WFN1 Module
                                ------------------



          No. of electrons :     2
           Alpha electrons :     2
            Beta electrons :     0
          Charge           :     0
          Spin multiplicity:     3

 HvD: wfn1_inpdft
 HvD: nquad_task =                     1
 HvD: iangquad   =                     0
 HvD: gridtype   = user      
 HvD: leb        =  T
 HvD: radgrid    = murakn    
 HvD: trunc_neigh=  T
 HvD: lssw       =  T
 HvD: whichssw   = erf1    
 HvD: mxnrad     =                     0
 HvD: mxnang     =                     0
 HVD: wfn1: movecs_in  = atomic                                                                                                                                                                                                                                                          
 HVD: wfn1: movecs_out = ./wfn1_dat.movecs                                                                                                                                                                                                                                               

      Superposition of Atomic Density Guess
      -------------------------------------

 Sum of atomic energies:          -0.99646508

      Non-variational initial energy
      ------------------------------

 Total energy =      -0.756103
 1-e energy   =      -2.531263
 2-e energy   =       0.649911
 HOMO         =      -0.742702
 LUMO         =       0.242209

 iteration              energy           error
 ---------              ------           -----
         0         -0.45048888        0.080000
         1         -0.45242896        0.080000
         2         -0.45339933        0.080000
         3         -0.45516695        0.080000
         4         -0.45671005        0.080000
         5         -0.45834558        0.080000
         6         -0.45854621        0.080000
         7         -0.45856641        0.080000
         8         -0.46067089        0.080000
         9         -0.46148065        0.080000
        10         -0.46403799        0.080000
        11         -0.46482622        0.080000
        12         -0.46486682        0.080000
        13         -0.46507348        0.080000
        14         -0.46551905        0.080000
        15         -0.46584217        0.080000
        16         -0.46741877        0.080000
        17         -0.46988175        0.080000
        18         -0.47081955        0.080000
        19         -0.47201917        0.080000
        20         -0.47326759        0.080000
        21         -0.47433074        0.080000
        22         -0.47590085        0.080000
        23         -0.47907813        0.080000
        24         -0.47973846        0.080000
        25         -0.47974616        0.080000
        26         -0.47975554        0.080000
        27         -0.48041177        0.080000
        28         -0.48049842        0.080000
        29         -0.48118787        0.080000
        30         -0.48158898        0.080000
        31         -0.48198480        0.080000
        32         -0.48241933        0.080000
        33         -0.48329860        0.080000
        34         -0.48359653        0.080000
        35         -0.48388464        0.080000
        36         -0.48424588        0.080000
        37         -0.48438699        0.080000
        38         -0.48463311        0.080000
        39         -0.48539905        0.080000
        40         -0.48573233        0.080000
        41         -0.48583939        0.080000
        42         -0.48589417        0.080000
        43         -0.48609395        0.080000
        44         -0.48634063        0.080000
        45         -0.48660431        0.080000
        46         -0.48677036        0.080000
        47         -0.48679440        0.080000
        48         -0.48688144        0.080000
        49         -0.48693208        0.080000
        50         -0.48710892        0.080000
        51         -0.48717030        0.080000
        52         -0.48718912        0.080000
        53         -0.48744486        0.080000
        54         -0.48749634        0.063451
        55         -0.48750720        0.056526
        56         -0.48753553        0.056526
        57         -0.48761186        0.056526
        58         -0.48763896        0.048456
        59         -0.48764066        0.048456
        60         -0.48764957        0.043168
        61         -0.48772670        0.043168
        62         -0.48773627        0.037724
        63         -0.48775638        0.032966
        64         -0.48776469        0.023763
        65         -0.48776681        0.017130
        66         -0.48776747        0.014684
        67         -0.48776945        0.014684
        68         -0.48776956        0.014684
        69         -0.48777128        0.014684
        70         -0.48777338        0.012588
        71         -0.48777612        0.012588
        72         -0.48777978        0.012588
        73         -0.48778219        0.011432
        74         -0.48778235        0.008564
        75         -0.48778336        0.008564
        76         -0.48778397        0.008564
        77         -0.48778437        0.006173
        78         -0.48778447        0.003270
        79         -0.48778472        0.002803
        80         -0.48778484        0.002803
        81         -0.48778501        0.002803
        82         -0.48778506        0.002803
        83         -0.48778511        0.002803
        84         -0.48778524        0.002403
        85         -0.48778545        0.002403
        86         -0.48778553        0.002225
        87         -0.48778554        0.001944
        88         -0.48778560        0.001944
        89         -0.48778564        0.001944
        90         -0.48778565        0.001944
        91         -0.48778567        0.001667
        92         -0.48778572        0.001514
        93         -0.48778573        0.001091
        94         -0.48778575        0.001091
        95         -0.48778576        0.001091
        96         -0.48778577        0.000935
        97         -0.48778577        0.000833
        98         -0.48778577        0.000833
        99         -0.48778577        0.000833
       100         -0.48778578        0.000833
       101         -0.48778578        0.000714
       102         -0.48778578        0.000714
       103         -0.48778579        0.000545
       104         -0.48778579        0.000477
       105         -0.48778579        0.000477
       106         -0.48778580        0.000477
       107         -0.48778580        0.000477
       108         -0.48778580        0.000477
       109         -0.48778580        0.000344
       110         -0.48778580        0.000318
       111         -0.48778581        0.000318
       112         -0.48778581        0.000318
       113         -0.48778581        0.000229
       114         -0.48778581        0.000172
       115         -0.48778581        0.000172
       116         -0.48778581        0.000172
       117         -0.48778581        0.000172
       118         -0.48778581        0.000147
       119         -0.48778581        0.000147
       120         -0.48778581        0.000134
       121         -0.48778581        0.000134
       122         -0.48778581        0.000134
       123         -0.48778581        0.000117
       124         -0.48778581        0.000117
       125         -0.48778581        0.000117
       126         -0.48778581        0.000104
       127         -0.48778581        0.000093
       128         -0.48778581        0.000093
       129         -0.48778581        0.000080
       130         -0.48778581        0.000080
       131         -0.48778581        0.000080
       132         -0.48778581        0.000080
       133         -0.48778581        0.000080
       134         -0.48778581        0.000069
       135         -0.48778581        0.000069
       136         -0.48778581        0.000069
       137         -0.48778581        0.000045
       138         -0.48778581        0.000045
       139         -0.48778581        0.000045
       140         -0.48778581        0.000045
       141         -0.48778581        0.000045
       142         -0.48778581        0.000045
       143         -0.48778581        0.000034
       144         -0.48778581        0.000034
       145         -0.48778581        0.000032
       146         -0.48778581        0.000032
       147         -0.48778581        0.000032
       148         -0.48778581        0.000032
       149         -0.48778581        0.000032
       150         -0.48778581        0.000032
       151         -0.48778581        0.000032
       152         -0.48778581        0.000032
       153         -0.48778581        0.000028
       154         -0.48778581        0.000028
       155         -0.48778581        0.000028
       156         -0.48778581        0.000017
       157         -0.48778581        0.000015
       158         -0.48778581        0.000015
       159         -0.48778581        0.000015
       160         -0.48778581        0.000015
       161         -0.48778581        0.000015
       162         -0.48778581        0.000013
       163         -0.48778581        0.000012
       164         -0.48778581        0.000012
       165         -0.48778581        0.000008
       166         -0.48778581        0.000008
       167         -0.48778581        0.000008
       168         -0.48778581        0.000006
       169         -0.48778581        0.000006
       170         -0.48778581        0.000005
       171         -0.48778581        0.000005
       172         -0.48778581        0.000005
       173         -0.48778581        0.000005
       174         -0.48778581        0.000004
       175         -0.48778581        0.000004
       176         -0.48778581        0.000003
       177         -0.48778581        0.000003
       178         -0.48778581        0.000002
       179         -0.48778581        0.000001
       180         -0.48778581        0.000001
       181         -0.48778581        0.000001
       182         -0.48778581        0.000001
       183         -0.48778581        0.000001
       184         -0.48778581        0.000001

 Reached Convergence

 WFN1                     :
 --------------------------
 Total WFN1 energy  =          -0.4877858149
 1-Electron energy  =          -2.0180667807
 2-Electron energy  =           0.4050317230
 Correlation energy =           0.0000000000
 DFT XC energy      =           0.0000000000
 Entropy energy     =           0.0000000000
 Nuclear energy     =           1.1252492427

 conventional Hartree-Fock:
 --------------------------
 Total SCF energy  =          -0.4877858149
 2-Electron energy =           0.4050317230

                WFN1 Final Natural orbital energies and occupations
                ---------------------------------------------------

              Alpha       Beta            Alpha       Beta  
            --------    --------        --------    --------
       1      0.0000      0.0000          1.0000      0.0000
       2      0.0000      0.0000          1.0000      0.0000
       3      0.0000      0.0000          0.0000      0.0000
       4      0.0000      0.0000          0.0000      0.0000

             WFN1 Final Correlation function energies and occupations
             --------------------------------------------------------

              Alpha       Beta            Alpha       Beta  
            --------    --------        --------    --------
       1      0.0000      0.0000          1.0000      0.0000
       2      0.0000      0.0000          1.0000      0.0000
       3      0.0000      0.0000          0.0000      0.0000
       4      0.0000      0.0000          0.0000      0.0000

                WFN1 Final alpha-alpha 2-matrix occupation numbers
                --------------------------------------------------


 global array: g_momo1[1:4,1:4],  handle: -990 

            1           2           3           4  
       ----------- ----------- ----------- -----------
   1       0.00000     1.00000     0.00000     0.00000
   2       1.00000     0.00000     0.00000     0.00000
   3       0.00000     0.00000     0.00000     0.00000
   4       0.00000     0.00000     0.00000     0.00000

                 WFN1 Final beta-beta 2-matrix occupation numbers
                 ------------------------------------------------


 global array: g_momo2[1:4,1:4],  handle: -989 

            1           2           3           4  
       ----------- ----------- ----------- -----------
   1       0.00000     0.00000     0.00000     0.00000
   2       0.00000     0.00000     0.00000     0.00000
   3       0.00000     0.00000     0.00000     0.00000
   4       0.00000     0.00000     0.00000     0.00000

                  WFN1 Final alpha Correlation Function Analysis
                  ----------------------------------------------


 global array: Ca[1:4,1:4],  handle: -981 

                     1                       2                       3                       4  
       ----------------------- ----------------------- ----------------------- -----------------------
   1       0.89912,   -0.40020     0.17211,    0.04242     0.00000,    0.00000    -0.00000,   -0.00000
   2      -0.10707,    0.14127     0.95062,   -0.25477     0.00000,    0.00000    -0.00000,    0.00000
   3      -0.00000,    0.00000    -0.00000,   -0.00000     0.58182,    0.81156     0.00846,    0.05278
   4       0.00000,   -0.00000     0.00000,    0.00000    -0.04670,   -0.02601     0.56351,    0.82438

                   WFN1 Final beta Correlation Function Analysis
                   ---------------------------------------------


 global array: Cb[1:4,1:4],  handle: -980 

                     1                       2                       3                       4  
       ----------------------- ----------------------- ----------------------- -----------------------
   1       0.90363,   -0.41297    -0.00175,   -0.00855     0.00840,    0.10679     0.01521,    0.03346
   2      -0.01498,   -0.03370     0.93232,   -0.23857    -0.26710,    0.00219     0.02099,    0.02689
   3      -0.05446,    0.08064     0.20681,    0.17388     0.55443,    0.77600    -0.05675,   -0.06891
   4      -0.03539,    0.02867    -0.01526,    0.02362     0.05138,    0.07056     0.55992,    0.82219

                     WFN1 Final Alpha Natural Orbital Analysis
                     -----------------------------------------

 Vector    1  Occ=1.000000D+00  E= 0.000000D+00
              MO Center=  0.0D+00,  0.0D+00,  2.9D-02, r^2= 4.1D-01
   Bfn.  Coefficient  Atom+Function         Bfn.  Coefficient  Atom+Function  
  ----- ------------  ---------------      ----- ------------  ---------------
     3      0.452776  2 H  s                  1      0.434887  1 H  s          
     4      0.224640  2 H  s          

 Vector    2  Occ=1.000000D+00  E= 0.000000D+00
              MO Center=  0.0D+00,  0.0D+00, -2.9D-02, r^2= 1.9D+00
   Bfn.  Coefficient  Atom+Function         Bfn.  Coefficient  Atom+Function  
  ----- ------------  ---------------      ----- ------------  ---------------
     2      2.585980  1 H  s                  4     -2.576253  2 H  s          
     1      0.239080  1 H  s                  3     -0.203173  2 H  s          

 Vector    3  Occ=1.064758D-13  E= 0.000000D+00
              MO Center=  0.0D+00,  0.0D+00, -4.5D-02, r^2= 1.7D+00
   Bfn.  Coefficient  Atom+Function         Bfn.  Coefficient  Atom+Function  
  ----- ------------  ---------------      ----- ------------  ---------------
     2     -0.797852  1 H  s                  1      0.677983  1 H  s          
     4     -0.576597  2 H  s                  3      0.511625  2 H  s          

 Vector    4  Occ=9.615242D-15  E= 0.000000D+00
              MO Center=  0.0D+00,  0.0D+00,  4.5D-02, r^2= 9.4D-01
   Bfn.  Coefficient  Atom+Function         Bfn.  Coefficient  Atom+Function  
  ----- ------------  ---------------      ----- ------------  ---------------
     4     -2.028033  2 H  s                  2      1.951618  1 H  s          
     3      1.529183  2 H  s                  1     -1.463045  1 H  s          


                     WFN1 Final Beta Natural Orbital Analysis
                     ----------------------------------------

 Vector    1  Occ=0.000000D+00  E= 0.000000D+00
              MO Center=  0.0D+00,  0.0D+00,  2.9D-02, r^2= 6.1D-01
   Bfn.  Coefficient  Atom+Function         Bfn.  Coefficient  Atom+Function  
  ----- ------------  ---------------      ----- ------------  ---------------
     3      0.398075  2 H  s                  1      0.267472  1 H  s          
     2      0.258433  1 H  s                  4      0.218812  2 H  s          

 Vector    2  Occ=0.000000D+00  E= 0.000000D+00
              MO Center=  0.0D+00,  0.0D+00, -9.4D-02, r^2= 2.1D+00
   Bfn.  Coefficient  Atom+Function         Bfn.  Coefficient  Atom+Function  
  ----- ------------  ---------------      ----- ------------  ---------------
     2      2.747548  1 H  s                  4     -2.655193  2 H  s          
     3     -0.158041  2 H  s                  1      0.088314  1 H  s          

 Vector    3  Occ=0.000000D+00  E= 0.000000D+00
              MO Center=  0.0D+00,  0.0D+00,  1.0D-01, r^2= 1.5D+00
   Bfn.  Coefficient  Atom+Function         Bfn.  Coefficient  Atom+Function  
  ----- ------------  ---------------      ----- ------------  ---------------
     4     -0.887454  2 H  s                  3      0.706524  2 H  s          
     1      0.618468  1 H  s                  2     -0.422486  1 H  s          

 Vector    4  Occ=0.000000D+00  E= 0.000000D+00
              MO Center=  0.0D+00,  0.0D+00, -3.7D-02, r^2= 8.2D-01
   Bfn.  Coefficient  Atom+Function         Bfn.  Coefficient  Atom+Function  
  ----- ------------  ---------------      ----- ------------  ---------------
     2      1.827189  1 H  s                  4     -1.802060  2 H  s          
     1     -1.544216  1 H  s                  3      1.470996  2 H  s          


 Task  times  cpu:       16.7s     wall:       24.3s
 Summary of allocated global arrays
-----------------------------------
  No active global arrays



                         GA Statistics for process    0
                         ------------------------------

       create   destroy   get      put      acc     scatter   gather  read&inc
calls:   44       44     9.03e+06 3.12e+04 2.47e+04    0        0       11     
number of processes/call 1.00e+00 1.00e+00 1.00e+00 0.00e+00 0.00e+00
bytes total:             1.16e+09 5.53e+06 3.95e+06 0.00e+00 0.00e+00 8.80e+01
bytes remote:            0.00e+00 0.00e+00 0.00e+00 0.00e+00 0.00e+00 0.00e+00
Max memory consumed for GA by this process: 10624 bytes
MA_summarize_allocated_blocks: starting scan ...
MA_summarize_allocated_blocks: scan completed: 0 heap blocks, 0 stack blocks
MA usage statistics:

	allocation statistics:
					      heap	     stack
					      ----	     -----
	current number of blocks	         0	         0
	maximum number of blocks	        19	        17
	current total bytes		         0	         0
	maximum total bytes		   3204328	  22508616
	maximum total K-bytes		      3205	     22509
	maximum total M-bytes		         4	        23


                                NWChem Input Module
                                -------------------





                                     CITATION
                                     --------
                Please cite the following reference when publishing
                           results obtained with NWChem:

                 M. Valiev, E.J. Bylaska, N. Govind, K. Kowalski,
              T.P. Straatsma, H.J.J. van Dam, D. Wang, J. Nieplocha,
                        E. Apra, T.L. Windus, W.A. de Jong
                 "NWChem: a comprehensive and scalable open-source
                  solution for large scale molecular simulations"
                      Comput. Phys. Commun. 181, 1477 (2010)
                           doi:10.1016/j.cpc.2010.04.018

                                      AUTHORS
                                      -------
          E. Apra, E. J. Bylaska, W. A. de Jong, N. Govind, K. Kowalski,
       T. P. Straatsma, M. Valiev, H. J. J. van Dam, D. Wang, T. L. Windus,
        J. Hammond, J. Autschbach, K. Bhaskaran-Nair, J. Brabec, K. Lopata,
    S. A. Fischer, S. Krishnamoorthy, M. Jacquelin, W. Ma, M. Klemm, O. Villa,
      Y. Chen, V. Anisimov, F. Aquino, S. Hirata, M. T. Hackler, V. Konjkov,
      T. Risthaus, M. Malagoli, A. Marenich, A. Otero-de-la-Roza, J. Mullin,
        P. Nichols, R. Peverati, J. Pittner, Y. Zhao, P.-D. Fan, A. Fonari,
       M. Williamson, R. J. Harrison, J. R. Rehr, M. Dupuis, D. Silverstein,
    D. M. A. Smith, J. Nieplocha, V. Tipparaju, M. Krishnan, B. E. Van Kuiken,
        A. Vazquez-Mayagoitia, L. Jensen, M. Swart, Q. Wu, T. Van Voorhis,
     A. A. Auer, M. Nooijen, L. D. Crosby, E. Brown, G. Cisneros, G. I. Fann,
   H. Fruchtl, J. Garza, K. Hirao, R. A. Kendall, J. A. Nichols, K. Tsemekhman,
    K. Wolinski, J. Anchell, D. E. Bernholdt, P. Borowski, T. Clark, D. Clerc,
   H. Dachsel, M. J. O. Deegan, K. Dyall, D. Elwood, E. Glendening, M. Gutowski,
   A. C. Hess, J. Jaffe, B. G. Johnson, J. Ju, R. Kobayashi, R. Kutteh, Z. Lin,
   R. Littlefield, X. Long, B. Meng, T. Nakajima, S. Niu, L. Pollack, M. Rosing,
   K. Glaesemann, G. Sandrone, M. Stave, H. Taylor, G. Thomas, J. H. van Lenthe,
                               A. T. Wong, Z. Zhang.

 Total times  cpu:       16.7s     wall:       24.3s
