 argument  1 = input-wf.nw



============================== echo of input deck ==============================
echo
start wfn1_dat
geometry units au noautoz
  H 0 0 -3.54434600000000000000
  H 0 0  3.54434600000000000000
  symmetry cs
end
basis
  H library 6-31g
end
set wfn1:input_vectors "atomic"
set wfn1:solver "monte-carlo"
set wfn1:print_error F
set wfn1:t_initial 0.1
set wfn1:nopen 2
#set wfn1:corr_expr "wfn1_mx"
set wfn1:corr_expr "wfn1c"
set wfn1:t_bath 0.0
set wfn1:maxit  20000
task wfn1 energy
================================================================================


                                         
                                         


              Northwest Computational Chemistry Package (NWChem) 6.8
              ------------------------------------------------------


                    Environmental Molecular Sciences Laboratory
                       Pacific Northwest National Laboratory
                                Richland, WA 99352

                              Copyright (c) 1994-2015
                       Pacific Northwest National Laboratory
                            Battelle Memorial Institute

             NWChem is an open-source computational chemistry package
                        distributed under the terms of the
                      Educational Community License (ECL) 2.0
             A copy of the license is included with this distribution
                              in the LICENSE.TXT file

                                  ACKNOWLEDGMENT
                                  --------------

            This software and its documentation were developed at the
            EMSL at Pacific Northwest National Laboratory, a multiprogram
            national laboratory, operated for the U.S. Department of Energy
            by Battelle under Contract Number DE-AC05-76RL01830. Support
            for this work was provided by the Department of Energy Office
            of Biological and Environmental Research, Office of Basic
            Energy Sciences, and the Office of Advanced Scientific Computing.


           Job information
           ---------------

    hostname        = erato
    program         = ../../../bin/LINUX64/nwchem
    date            = Sat Mar  6 01:38:18 2021

    compiled        = Sat_Mar_06_01:07:04_2021
    source          = /home/hvandam/nwchem-1-wfn1
    nwchem branch   = Development
    nwchem revision = nwchem_on_git-124-gad72d19fff205e319ffbbf2bca37a04ded6ad57b
    ga revision     = nwchem_on_git-124-gad72d19
    use scalapack   = F
    input           = input-wf.nw
    prefix          = wfn1_dat.
    data base       = ./wfn1_dat.db
    status          = startup
    nproc           =        1
    time left       =     -1s



           Memory information
           ------------------

    heap     =   13107198 doubles =    100.0 Mbytes
    stack    =   13107195 doubles =    100.0 Mbytes
    global   =   26214400 doubles =    200.0 Mbytes (distinct from heap & stack)
    total    =   52428793 doubles =    400.0 Mbytes
    verify   = yes
    hardfail = no 


           Directory information
           ---------------------

  0 permanent = .
  0 scratch   = .




                                NWChem Input Module
                                -------------------


 Turning off AUTOSYM since
 SYMMETRY directive was detected!



                             Geometry "geometry" -> ""
                             -------------------------

 Output coordinates in a.u. (scale by  1.000000000 to convert to a.u.)

  No.       Tag          Charge          X              Y              Z
 ---- ---------------- ---------- -------------- -------------- --------------
    1 H                    1.0000     0.00000000     0.00000000    -3.54434600
    2 H                    1.0000     0.00000000     0.00000000     3.54434600

      Atomic Mass 
      ----------- 

      H                  1.007825


 Effective nuclear repulsion energy (a.u.)       0.1410697488

            Nuclear Dipole moment (a.u.) 
            ----------------------------
        X                 Y               Z
 ---------------- ---------------- ----------------
     0.0000000000     0.0000000000     0.0000000000

      Symmetry information
      --------------------

 Group name             Cs        
 Group number              2
 Group order               2
 No. of unique centers     1

      Symmetry unique atoms

     1


            XYZ format geometry
            -------------------
     2
 geometry
 H                     0.00000000     0.00000000    -1.87558727
 H                     0.00000000     0.00000000     1.87558727

                      Basis "ao basis" -> "" (cartesian)
                      -----
  H (Hydrogen)
  ------------
            Exponent  Coefficients 
       -------------- ---------------------------------------------------------
  1 S  1.87311370E+01  0.033495
  1 S  2.82539370E+00  0.234727
  1 S  6.40121700E-01  0.813757

  2 S  1.61277800E-01  1.000000



 Summary of "ao basis" -> "" (cartesian)
 ------------------------------------------------------------------------------
       Tag                 Description            Shells   Functions and Types
 ---------------- ------------------------------  ------  ---------------------
 H                           6-31g                   2        2   2s



                                NWChem WFN1 Module
                                ------------------



          No. of electrons :     2
           Alpha electrons :     2
            Beta electrons :     0
          Charge           :     0
          Spin multiplicity:     3

 HvD: wfn1_inpdft
 HvD: nquad_task =                     1
 HvD: iangquad   =                     0
 HvD: gridtype   = user      
 HvD: leb        =  T
 HvD: radgrid    = murakn    
 HvD: trunc_neigh=  T
 HvD: lssw       =  T
 HvD: whichssw   = erf1    
 HvD: mxnrad     =                     0
 HvD: mxnang     =                     0
 HVD: wfn1: movecs_in  = atomic                                                                                                                                                                                                                                                          
 HVD: wfn1: movecs_out = ./wfn1_dat.movecs                                                                                                                                                                                                                                               

      Superposition of Atomic Density Guess
      -------------------------------------

 Sum of atomic energies:          -0.99646508

      Non-variational initial energy
      ------------------------------

 Total energy =      -0.682127
 1-e energy   =      -1.278605
 2-e energy   =       0.455409
 HOMO         =      -0.196627
 LUMO         =      -0.185704

 iteration              energy           error
 ---------              ------           -----
         0         -0.98467594        0.080000
         1         -0.98495220        0.080000
         2         -0.98515209        0.080000
         3         -0.98533138        0.080000
         4         -0.98571593        0.080000
         5         -0.98755064        0.080000
         6         -0.98821596        0.080000
         7         -0.98893172        0.080000
         8         -0.98983887        0.080000
         9         -0.99113872        0.080000
        10         -0.99158938        0.080000
        11         -0.99241435        0.080000
        12         -0.99282075        0.080000
        13         -0.99382214        0.080000
        14         -0.99395722        0.080000
        15         -0.99431271        0.080000
        16         -0.99459801        0.080000
        17         -0.99480192        0.080000
        18         -0.99482895        0.080000
        19         -0.99495972        0.080000
        20         -0.99532759        0.080000
        21         -0.99539812        0.080000
        22         -0.99551384        0.080000
        23         -0.99573453        0.080000
        24         -0.99611677        0.080000
        25         -0.99616810        0.080000
        26         -0.99621820        0.054413
        27         -0.99628660        0.054413
        28         -0.99630523        0.046644
        29         -0.99630796        0.046644
        30         -0.99636024        0.046644
        31         -0.99640928        0.046644
        32         -0.99641981        0.040762
        33         -0.99642063        0.031129
        34         -0.99642144        0.022439
        35         -0.99642505        0.022439
        36         -0.99642514        0.019235
        37         -0.99642804        0.016810
        38         -0.99643042        0.014410
        39         -0.99643166        0.014410
        40         -0.99643178        0.014410
        41         -0.99643510        0.014410
        42         -0.99643522        0.012352
        43         -0.99643532        0.011218
        44         -0.99643552        0.011218
        45         -0.99643610        0.011218
        46         -0.99643678        0.011218
        47         -0.99643690        0.008086
        48         -0.99643796        0.008086
        49         -0.99643957        0.008086
        50         -0.99643959        0.007344
        51         -0.99643987        0.007344
        52         -0.99643992        0.005501
        53         -0.99644000        0.004043
        54         -0.99644033        0.004043
        55         -0.99644035        0.004043
        56         -0.99644046        0.004043
        57         -0.99644057        0.003466
        58         -0.99644062        0.003466
        59         -0.99644087        0.003147
        60         -0.99644096        0.002750
        61         -0.99644107        0.002750
        62         -0.99644109        0.002358
        63         -0.99644114        0.002060
        64         -0.99644116        0.001766
        65         -0.99644122        0.001766
        66         -0.99644122        0.001766
        67         -0.99644124        0.001766
        68         -0.99644126        0.001273
        69         -0.99644126        0.001273
        70         -0.99644127        0.001156
        71         -0.99644127        0.001156
        72         -0.99644128        0.001010
        73         -0.99644128        0.001010
        74         -0.99644129        0.001010
        75         -0.99644129        0.001010
        76         -0.99644130        0.000624
        77         -0.99644130        0.000567
        78         -0.99644131        0.000486
        79         -0.99644131        0.000417
        80         -0.99644131        0.000417
        81         -0.99644131        0.000417
        82         -0.99644131        0.000253
        83         -0.99644131        0.000253
        84         -0.99644131        0.000253
        85         -0.99644131        0.000253
        86         -0.99644131        0.000225
        87         -0.99644131        0.000225
        88         -0.99644131        0.000225
        89         -0.99644131        0.000225
        90         -0.99644131        0.000225
        91         -0.99644131        0.000225
        92         -0.99644131        0.000204
        93         -0.99644131        0.000204
        94         -0.99644131        0.000204
        95         -0.99644131        0.000162
        96         -0.99644131        0.000102
        97         -0.99644131        0.000102
        98         -0.99644131        0.000088
        99         -0.99644131        0.000088
       100         -0.99644131        0.000064
       101         -0.99644132        0.000064
       102         -0.99644132        0.000056
       103         -0.99644132        0.000035
       104         -0.99644132        0.000030
       105         -0.99644132        0.000030
       106         -0.99644132        0.000030
       107         -0.99644132        0.000030
       108         -0.99644132        0.000026
       109         -0.99644132        0.000023
       110         -0.99644132        0.000023
       111         -0.99644132        0.000023
       112         -0.99644132        0.000020
       113         -0.99644132        0.000018
       114         -0.99644132        0.000018
       115         -0.99644132        0.000018
       116         -0.99644132        0.000015
       117         -0.99644132        0.000015
       118         -0.99644132        0.000015
       119         -0.99644132        0.000015
       120         -0.99644132        0.000014
       121         -0.99644132        0.000012
       122         -0.99644132        0.000012
       123         -0.99644132        0.000012
       124         -0.99644132        0.000012
       125         -0.99644132        0.000011
       126         -0.99644132        0.000010
       127         -0.99644132        0.000007
       128         -0.99644132        0.000007
       129         -0.99644132        0.000006
       130         -0.99644132        0.000006
       131         -0.99644132        0.000006
       132         -0.99644132        0.000005
       133         -0.99644132        0.000005
       134         -0.99644132        0.000003
       135         -0.99644132        0.000003
       136         -0.99644132        0.000003
       137         -0.99644132        0.000002
       138         -0.99644132        0.000002
       139         -0.99644132        0.000002
       140         -0.99644132        0.000002
       141         -0.99644132        0.000002
       142         -0.99644132        0.000001
       143         -0.99644132        0.000001
       144         -0.99644132        0.000001
       145         -0.99644132        0.000001
       146         -0.99644132        0.000001
       147         -0.99644132        0.000001

 Reached Convergence

 WFN1                     :
 --------------------------
 Total WFN1 energy  =          -0.9964413152
 1-Electron energy  =          -1.2785723927
 2-Electron energy  =           0.1410613287
 Correlation energy =           0.0000000000
 DFT XC energy      =           0.0000000000
 Entropy energy     =           0.0000000000
 Nuclear energy     =           0.1410697488

 conventional Hartree-Fock:
 --------------------------
 Total SCF energy  =          -0.9964413152
 2-Electron energy =           0.1410613287

                WFN1 Final Natural orbital energies and occupations
                ---------------------------------------------------

              Alpha       Beta            Alpha       Beta  
            --------    --------        --------    --------
       1      0.0000      0.0000          1.0000      0.0000
       2      0.0000      0.0000          1.0000      0.0000
       3      0.0000      0.0000          0.0000      0.0000
       4      0.0000      0.0000          0.0000      0.0000

             WFN1 Final Correlation function energies and occupations
             --------------------------------------------------------

              Alpha       Beta            Alpha       Beta  
            --------    --------        --------    --------
       1      0.0000      0.0000          1.0000      0.0000
       2      0.0000      0.0000          1.0000      0.0000
       3      0.0000      0.0000          0.0000      0.0000
       4      0.0000      0.0000          0.0000      0.0000

                WFN1 Final alpha-alpha 2-matrix occupation numbers
                --------------------------------------------------


 global array: g_momo1[1:4,1:4],  handle: -990 

            1           2           3           4  
       ----------- ----------- ----------- -----------
   1       0.00000     1.00000     0.00000     0.00000
   2       1.00000     0.00000     0.00000     0.00000
   3       0.00000     0.00000     0.00000     0.00000
   4       0.00000     0.00000     0.00000     0.00000

                 WFN1 Final beta-beta 2-matrix occupation numbers
                 ------------------------------------------------


 global array: g_momo2[1:4,1:4],  handle: -989 

            1           2           3           4  
       ----------- ----------- ----------- -----------
   1       0.00000     0.00000     0.00000     0.00000
   2       0.00000     0.00000     0.00000     0.00000
   3       0.00000     0.00000     0.00000     0.00000
   4       0.00000     0.00000     0.00000     0.00000

                  WFN1 Final alpha Correlation Function Analysis
                  ----------------------------------------------


 global array: Ca[1:4,1:4],  handle: -977 

                     1                       2                       3                       4  
       ----------------------- ----------------------- ----------------------- -----------------------
   1       0.47414,    0.54888     0.44836,    0.52240    -0.00000,    0.00000    -0.00000,   -0.00000
   2      -0.25933,   -0.63771     0.27108,    0.67275     0.00000,   -0.00000     0.00000,   -0.00000
   3       0.00000,   -0.00000    -0.00000,   -0.00000    -0.29255,   -0.72054    -0.22877,   -0.58557
   4      -0.00000,   -0.00000    -0.00000,   -0.00000    -0.44788,    0.44117     0.56120,   -0.53835

                   WFN1 Final beta Correlation Function Analysis
                   ---------------------------------------------


 global array: Cb[1:4,1:4],  handle: -976 

                     1                       2                       3                       4  
       ----------------------- ----------------------- ----------------------- -----------------------
   1       0.49061,    0.52509     0.46344,    0.50169    -0.12561,   -0.00634     0.01763,    0.03133
   2      -0.23291,   -0.64732     0.24045,    0.68271    -0.00422,    0.01774    -0.04568,    0.01974
   3       0.00183,   -0.04713     0.05889,   -0.05730    -0.35880,   -0.64834    -0.35051,   -0.56487
   4      -0.08942,   -0.00882    -0.05025,    0.01851    -0.54589,    0.36982     0.59186,   -0.45166

                     WFN1 Final Alpha Natural Orbital Analysis
                     -----------------------------------------

 Vector    1  Occ=1.000000D+00  E= 0.000000D+00
              MO Center=  0.0D+00,  0.0D+00,  4.4D-02, r^2= 4.3D+00
   Bfn.  Coefficient  Atom+Function         Bfn.  Coefficient  Atom+Function  
  ----- ------------  ---------------      ----- ------------  ---------------
     4     -0.475616  2 H  s                  2     -0.464520  1 H  s          
     3     -0.302936  2 H  s                  1     -0.295745  1 H  s          

 Vector    2  Occ=1.000000D+00  E= 0.000000D+00
              MO Center=  0.0D+00,  0.0D+00, -4.4D-02, r^2= 4.3D+00
   Bfn.  Coefficient  Atom+Function         Bfn.  Coefficient  Atom+Function  
  ----- ------------  ---------------      ----- ------------  ---------------
     2     -0.476432  1 H  s                  4      0.465355  2 H  s          
     1     -0.308688  1 H  s                  3      0.301635  2 H  s          

 Vector    3  Occ=3.823154D-15  E= 0.000000D+00
              MO Center=  0.0D+00,  0.0D+00, -8.3D-02, r^2= 4.6D+00
   Bfn.  Coefficient  Atom+Function         Bfn.  Coefficient  Atom+Function  
  ----- ------------  ---------------      ----- ------------  ---------------
     1      0.904583  1 H  s                  3      0.864978  2 H  s          
     2     -0.816233  1 H  s                  4     -0.779530  2 H  s          

 Vector    4  Occ=1.105434D-15  E= 0.000000D+00
              MO Center=  0.0D+00,  0.0D+00,  8.3D-02, r^2= 4.8D+00
   Bfn.  Coefficient  Atom+Function         Bfn.  Coefficient  Atom+Function  
  ----- ------------  ---------------      ----- ------------  ---------------
     3      0.913441  2 H  s                  1     -0.874238  1 H  s          
     4     -0.846025  2 H  s                  2      0.810672  1 H  s          


                     WFN1 Final Beta Natural Orbital Analysis
                     ----------------------------------------

 Vector    1  Occ=0.000000D+00  E= 0.000000D+00
              MO Center=  0.0D+00,  0.0D+00, -5.5D-02, r^2= 4.4D+00
   Bfn.  Coefficient  Atom+Function         Bfn.  Coefficient  Atom+Function  
  ----- ------------  ---------------      ----- ------------  ---------------
     2     -0.549648  1 H  s                  4     -0.466366  2 H  s          
     3     -0.290799  2 H  s                  1     -0.220226  1 H  s          

 Vector    2  Occ=0.000000D+00  E= 0.000000D+00
              MO Center=  0.0D+00,  0.0D+00,  4.3D-02, r^2= 4.4D+00
   Bfn.  Coefficient  Atom+Function         Bfn.  Coefficient  Atom+Function  
  ----- ------------  ---------------      ----- ------------  ---------------
     4      0.529702  2 H  s                  2     -0.454166  1 H  s          
     1     -0.314354  1 H  s                  3      0.248665  2 H  s          

 Vector    3  Occ=0.000000D+00  E= 0.000000D+00
              MO Center=  0.0D+00,  0.0D+00, -5.4D-02, r^2= 4.6D+00
   Bfn.  Coefficient  Atom+Function         Bfn.  Coefficient  Atom+Function  
  ----- ------------  ---------------      ----- ------------  ---------------
     1      0.901240  1 H  s                  3      0.894823  2 H  s          
     2     -0.805783  1 H  s                  4     -0.739840  2 H  s          

 Vector    4  Occ=0.000000D+00  E= 0.000000D+00
              MO Center=  0.0D+00,  0.0D+00,  6.7D-02, r^2= 4.8D+00
   Bfn.  Coefficient  Atom+Function         Bfn.  Coefficient  Atom+Function  
  ----- ------------  ---------------      ----- ------------  ---------------
     3      0.904549  2 H  s                  1     -0.897644  1 H  s          
     4     -0.848968  2 H  s                  2      0.780080  1 H  s          


 Task  times  cpu:       14.5s     wall:       21.9s
 Summary of allocated global arrays
-----------------------------------
  No active global arrays



                         GA Statistics for process    0
                         ------------------------------

       create   destroy   get      put      acc     scatter   gather  read&inc
calls:   44       44     8.38e+06 2.90e+04 2.29e+04    0        0       11     
number of processes/call 1.00e+00 1.00e+00 1.00e+00 0.00e+00 0.00e+00
bytes total:             1.08e+09 5.12e+06 3.66e+06 0.00e+00 0.00e+00 8.80e+01
bytes remote:            0.00e+00 0.00e+00 0.00e+00 0.00e+00 0.00e+00 0.00e+00
Max memory consumed for GA by this process: 10624 bytes
MA_summarize_allocated_blocks: starting scan ...
MA_summarize_allocated_blocks: scan completed: 0 heap blocks, 0 stack blocks
MA usage statistics:

	allocation statistics:
					      heap	     stack
					      ----	     -----
	current number of blocks	         0	         0
	maximum number of blocks	        19	        17
	current total bytes		         0	         0
	maximum total bytes		   3204344	  22508664
	maximum total K-bytes		      3205	     22509
	maximum total M-bytes		         4	        23


                                NWChem Input Module
                                -------------------





                                     CITATION
                                     --------
                Please cite the following reference when publishing
                           results obtained with NWChem:

                 M. Valiev, E.J. Bylaska, N. Govind, K. Kowalski,
              T.P. Straatsma, H.J.J. van Dam, D. Wang, J. Nieplocha,
                        E. Apra, T.L. Windus, W.A. de Jong
                 "NWChem: a comprehensive and scalable open-source
                  solution for large scale molecular simulations"
                      Comput. Phys. Commun. 181, 1477 (2010)
                           doi:10.1016/j.cpc.2010.04.018

                                      AUTHORS
                                      -------
          E. Apra, E. J. Bylaska, W. A. de Jong, N. Govind, K. Kowalski,
       T. P. Straatsma, M. Valiev, H. J. J. van Dam, D. Wang, T. L. Windus,
        J. Hammond, J. Autschbach, K. Bhaskaran-Nair, J. Brabec, K. Lopata,
    S. A. Fischer, S. Krishnamoorthy, M. Jacquelin, W. Ma, M. Klemm, O. Villa,
      Y. Chen, V. Anisimov, F. Aquino, S. Hirata, M. T. Hackler, V. Konjkov,
      T. Risthaus, M. Malagoli, A. Marenich, A. Otero-de-la-Roza, J. Mullin,
        P. Nichols, R. Peverati, J. Pittner, Y. Zhao, P.-D. Fan, A. Fonari,
       M. Williamson, R. J. Harrison, J. R. Rehr, M. Dupuis, D. Silverstein,
    D. M. A. Smith, J. Nieplocha, V. Tipparaju, M. Krishnan, B. E. Van Kuiken,
        A. Vazquez-Mayagoitia, L. Jensen, M. Swart, Q. Wu, T. Van Voorhis,
     A. A. Auer, M. Nooijen, L. D. Crosby, E. Brown, G. Cisneros, G. I. Fann,
   H. Fruchtl, J. Garza, K. Hirao, R. A. Kendall, J. A. Nichols, K. Tsemekhman,
    K. Wolinski, J. Anchell, D. E. Bernholdt, P. Borowski, T. Clark, D. Clerc,
   H. Dachsel, M. J. O. Deegan, K. Dyall, D. Elwood, E. Glendening, M. Gutowski,
   A. C. Hess, J. Jaffe, B. G. Johnson, J. Ju, R. Kobayashi, R. Kutteh, Z. Lin,
   R. Littlefield, X. Long, B. Meng, T. Nakajima, S. Niu, L. Pollack, M. Rosing,
   K. Glaesemann, G. Sandrone, M. Stave, H. Taylor, G. Thomas, J. H. van Lenthe,
                               A. T. Wong, Z. Zhang.

 Total times  cpu:       14.5s     wall:       21.9s
