 argument  1 = input-wf.nw



============================== echo of input deck ==============================
echo
start wfn1_dat
geometry units au noautoz
  H 0 0 -4.34434600000000000000
  H 0 0  4.34434600000000000000
  symmetry cs
end
basis
  H library 6-31g
end
set wfn1:input_vectors "atomic"
set wfn1:solver "monte-carlo"
set wfn1:print_error F
set wfn1:t_initial 0.1
set wfn1:nopen 2
#set wfn1:corr_expr "wfn1_mx"
set wfn1:corr_expr "wfn1c"
set wfn1:t_bath 0.0
set wfn1:maxit  20000
task wfn1 energy
================================================================================


                                         
                                         


              Northwest Computational Chemistry Package (NWChem) 6.8
              ------------------------------------------------------


                    Environmental Molecular Sciences Laboratory
                       Pacific Northwest National Laboratory
                                Richland, WA 99352

                              Copyright (c) 1994-2015
                       Pacific Northwest National Laboratory
                            Battelle Memorial Institute

             NWChem is an open-source computational chemistry package
                        distributed under the terms of the
                      Educational Community License (ECL) 2.0
             A copy of the license is included with this distribution
                              in the LICENSE.TXT file

                                  ACKNOWLEDGMENT
                                  --------------

            This software and its documentation were developed at the
            EMSL at Pacific Northwest National Laboratory, a multiprogram
            national laboratory, operated for the U.S. Department of Energy
            by Battelle under Contract Number DE-AC05-76RL01830. Support
            for this work was provided by the Department of Energy Office
            of Biological and Environmental Research, Office of Basic
            Energy Sciences, and the Office of Advanced Scientific Computing.


           Job information
           ---------------

    hostname        = erato
    program         = ../../../bin/LINUX64/nwchem
    date            = Sat Mar  6 01:43:48 2021

    compiled        = Sat_Mar_06_01:07:04_2021
    source          = /home/hvandam/nwchem-1-wfn1
    nwchem branch   = Development
    nwchem revision = nwchem_on_git-124-gad72d19fff205e319ffbbf2bca37a04ded6ad57b
    ga revision     = nwchem_on_git-124-gad72d19
    use scalapack   = F
    input           = input-wf.nw
    prefix          = wfn1_dat.
    data base       = ./wfn1_dat.db
    status          = startup
    nproc           =        1
    time left       =     -1s



           Memory information
           ------------------

    heap     =   13107196 doubles =    100.0 Mbytes
    stack    =   13107201 doubles =    100.0 Mbytes
    global   =   26214400 doubles =    200.0 Mbytes (distinct from heap & stack)
    total    =   52428797 doubles =    400.0 Mbytes
    verify   = yes
    hardfail = no 


           Directory information
           ---------------------

  0 permanent = .
  0 scratch   = .




                                NWChem Input Module
                                -------------------


 Turning off AUTOSYM since
 SYMMETRY directive was detected!



                             Geometry "geometry" -> ""
                             -------------------------

 Output coordinates in a.u. (scale by  1.000000000 to convert to a.u.)

  No.       Tag          Charge          X              Y              Z
 ---- ---------------- ---------- -------------- -------------- --------------
    1 H                    1.0000     0.00000000     0.00000000    -4.34434600
    2 H                    1.0000     0.00000000     0.00000000     4.34434600

      Atomic Mass 
      ----------- 

      H                  1.007825


 Effective nuclear repulsion energy (a.u.)       0.1150921220

            Nuclear Dipole moment (a.u.) 
            ----------------------------
        X                 Y               Z
 ---------------- ---------------- ----------------
     0.0000000000     0.0000000000     0.0000000000

      Symmetry information
      --------------------

 Group name             Cs        
 Group number              2
 Group order               2
 No. of unique centers     1

      Symmetry unique atoms

     1


            XYZ format geometry
            -------------------
     2
 geometry
 H                     0.00000000     0.00000000    -2.29892906
 H                     0.00000000     0.00000000     2.29892906

                      Basis "ao basis" -> "" (cartesian)
                      -----
  H (Hydrogen)
  ------------
            Exponent  Coefficients 
       -------------- ---------------------------------------------------------
  1 S  1.87311370E+01  0.033495
  1 S  2.82539370E+00  0.234727
  1 S  6.40121700E-01  0.813757

  2 S  1.61277800E-01  1.000000



 Summary of "ao basis" -> "" (cartesian)
 ------------------------------------------------------------------------------
       Tag                 Description            Shells   Functions and Types
 ---------------- ------------------------------  ------  ---------------------
 H                           6-31g                   2        2   2s



                                NWChem WFN1 Module
                                ------------------



          No. of electrons :     2
           Alpha electrons :     2
            Beta electrons :     0
          Charge           :     0
          Spin multiplicity:     3

 HvD: wfn1_inpdft
 HvD: nquad_task =                     1
 HvD: iangquad   =                     0
 HvD: gridtype   = user      
 HvD: leb        =  T
 HvD: radgrid    = murakn    
 HvD: trunc_neigh=  T
 HvD: lssw       =  T
 HvD: whichssw   = erf1    
 HvD: mxnrad     =                     0
 HvD: mxnang     =                     0
 HVD: wfn1: movecs_in  = atomic                                                                                                                                                                                                                                                          
 HVD: wfn1: movecs_out = ./wfn1_dat.movecs                                                                                                                                                                                                                                               

      Superposition of Atomic Density Guess
      -------------------------------------

 Sum of atomic energies:          -0.99646508

      Non-variational initial energy
      ------------------------------

 Total energy =      -0.682110
 1-e energy   =      -1.226650
 2-e energy   =       0.429448
 HOMO         =      -0.192199
 LUMO         =      -0.190173

 iteration              energy           error
 ---------              ------           -----
         0         -0.98469742        0.080000
         1         -0.98478005        0.080000
         2         -0.98518386        0.080000
         3         -0.98551448        0.080000
         4         -0.98668616        0.080000
         5         -0.98812041        0.080000
         6         -0.98826097        0.080000
         7         -0.99016329        0.080000
         8         -0.99141329        0.080000
         9         -0.99346651        0.080000
        10         -0.99357927        0.080000
        11         -0.99378104        0.080000
        12         -0.99439510        0.080000
        13         -0.99470706        0.080000
        14         -0.99518097        0.080000
        15         -0.99550692        0.080000
        16         -0.99562359        0.080000
        17         -0.99576715        0.080000
        18         -0.99584242        0.080000
        19         -0.99591999        0.079980
        20         -0.99596066        0.068562
        21         -0.99617698        0.068562
        22         -0.99619418        0.068562
        23         -0.99624609        0.068562
        24         -0.99624892        0.058773
        25         -0.99634835        0.058773
        26         -0.99635510        0.053376
        27         -0.99636727        0.039223
        28         -0.99637095        0.039223
        29         -0.99638513        0.039223
        30         -0.99638951        0.039223
        31         -0.99639045        0.039223
        32         -0.99639998        0.039223
        33         -0.99640349        0.039223
        34         -0.99642920        0.033623
        35         -0.99644182        0.027203
        36         -0.99644483        0.027203
        37         -0.99644486        0.027203
        38         -0.99644526        0.019609
        39         -0.99645441        0.019609
        40         -0.99645616        0.017469
        41         -0.99645699        0.017469
        42         -0.99645713        0.017469
        43         -0.99645940        0.012837
        44         -0.99646178        0.011436
        45         -0.99646223        0.009803
        46         -0.99646342        0.009803
        47         -0.99646428        0.009803
        48         -0.99646430        0.008404
        49         -0.99646499        0.008404
        50         -0.99646502        0.005294
        51         -0.99646536        0.005294
        52         -0.99646537        0.005294
        53         -0.99646541        0.005294
        54         -0.99646553        0.002751
        55         -0.99646556        0.002498
        56         -0.99646558        0.001801
        57         -0.99646558        0.001801
        58         -0.99646563        0.001801
        59         -0.99646564        0.001801
        60         -0.99646574        0.001801
        61         -0.99646574        0.001544
        62         -0.99646578        0.001429
        63         -0.99646578        0.001225
        64         -0.99646579        0.001225
        65         -0.99646583        0.001050
        66         -0.99646584        0.001050
        67         -0.99646585        0.001050
        68         -0.99646586        0.000918
        69         -0.99646587        0.000918
        70         -0.99646587        0.000486
        71         -0.99646587        0.000357
        72         -0.99646587        0.000357
        73         -0.99646587        0.000258
        74         -0.99646587        0.000258
        75         -0.99646588        0.000258
        76         -0.99646588        0.000258
        77         -0.99646588        0.000258
        78         -0.99646588        0.000258
        79         -0.99646588        0.000189
        80         -0.99646588        0.000179
        81         -0.99646588        0.000153
        82         -0.99646588        0.000153
        83         -0.99646588        0.000131
        84         -0.99646588        0.000115
        85         -0.99646588        0.000115
        86         -0.99646588        0.000115
        87         -0.99646588        0.000115
        88         -0.99646588        0.000115
        89         -0.99646588        0.000098
        90         -0.99646588        0.000091
        91         -0.99646588        0.000066
        92         -0.99646588        0.000066
        93         -0.99646588        0.000056
        94         -0.99646588        0.000056
        95         -0.99646588        0.000056
        96         -0.99646588        0.000056
        97         -0.99646588        0.000049
        98         -0.99646588        0.000049
        99         -0.99646588        0.000038
       100         -0.99646588        0.000028
       101         -0.99646588        0.000024
       102         -0.99646588        0.000020
       103         -0.99646588        0.000020
       104         -0.99646588        0.000020
       105         -0.99646588        0.000020
       106         -0.99646588        0.000020
       107         -0.99646588        0.000017
       108         -0.99646588        0.000017
       109         -0.99646588        0.000014
       110         -0.99646588        0.000007
       111         -0.99646588        0.000006
       112         -0.99646588        0.000006
       113         -0.99646588        0.000006
       114         -0.99646588        0.000006
       115         -0.99646588        0.000006
       116         -0.99646588        0.000005
       117         -0.99646588        0.000005
       118         -0.99646588        0.000005
       119         -0.99646588        0.000004
       120         -0.99646588        0.000004
       121         -0.99646588        0.000004
       122         -0.99646588        0.000004
       123         -0.99646588        0.000004
       124         -0.99646588        0.000004
       125         -0.99646588        0.000004
       126         -0.99646588        0.000003
       127         -0.99646588        0.000003
       128         -0.99646588        0.000001
       129         -0.99646588        0.000001
       130         -0.99646588        0.000001
       131         -0.99646588        0.000001
       132         -0.99646588        0.000001

 Reached Convergence

 WFN1                     :
 --------------------------
 Total WFN1 energy  =          -0.9964658787
 1-Electron energy  =          -1.2266504795
 2-Electron energy  =           0.1150924788
 Correlation energy =           0.0000000000
 DFT XC energy      =           0.0000000000
 Entropy energy     =           0.0000000000
 Nuclear energy     =           0.1150921220

 conventional Hartree-Fock:
 --------------------------
 Total SCF energy  =          -0.9964658787
 2-Electron energy =           0.1150924788

                WFN1 Final Natural orbital energies and occupations
                ---------------------------------------------------

              Alpha       Beta            Alpha       Beta  
            --------    --------        --------    --------
       1      0.0000      0.0000          1.0000      0.0000
       2      0.0000      0.0000          1.0000      0.0000
       3      0.0000      0.0000          0.0000      0.0000
       4      0.0000      0.0000          0.0000      0.0000

             WFN1 Final Correlation function energies and occupations
             --------------------------------------------------------

              Alpha       Beta            Alpha       Beta  
            --------    --------        --------    --------
       1      0.0000      0.0000          1.0000      0.0000
       2      0.0000      0.0000          1.0000      0.0000
       3      0.0000      0.0000          0.0000      0.0000
       4      0.0000      0.0000          0.0000      0.0000

                WFN1 Final alpha-alpha 2-matrix occupation numbers
                --------------------------------------------------


 global array: g_momo1[1:4,1:4],  handle: -990 

            1           2           3           4  
       ----------- ----------- ----------- -----------
   1      -0.00000     1.00000     0.00000     0.00000
   2       1.00000     0.00000     0.00000     0.00000
   3       0.00000     0.00000     0.00000     0.00000
   4       0.00000     0.00000     0.00000     0.00000

                 WFN1 Final beta-beta 2-matrix occupation numbers
                 ------------------------------------------------


 global array: g_momo2[1:4,1:4],  handle: -989 

            1           2           3           4  
       ----------- ----------- ----------- -----------
   1       0.00000     0.00000     0.00000     0.00000
   2       0.00000     0.00000     0.00000     0.00000
   3       0.00000     0.00000     0.00000     0.00000
   4       0.00000     0.00000     0.00000     0.00000

                  WFN1 Final alpha Correlation Function Analysis
                  ----------------------------------------------


 global array: Ca[1:4,1:4],  handle: -981 

                     1                       2                       3                       4  
       ----------------------- ----------------------- ----------------------- -----------------------
   1      -0.46309,    0.55129    -0.44639,    0.53137    -0.00000,   -0.00000    -0.00000,    0.00000
   2       0.07237,   -0.69021    -0.07510,    0.71606     0.00000,    0.00000    -0.00000,   -0.00000
   3       0.00000,    0.00000     0.00000,    0.00000     0.47483,   -0.53431     0.46513,   -0.52221
   4       0.00000,    0.00000    -0.00000,    0.00000     0.49746,   -0.49152    -0.50904,    0.50182

                   WFN1 Final beta Correlation Function Analysis
                   ---------------------------------------------


 global array: Cb[1:4,1:4],  handle: -980 

                     1                       2                       3                       4  
       ----------------------- ----------------------- ----------------------- -----------------------
   1      -0.40079,    0.53206    -0.45216,    0.59011     0.00907,    0.02279    -0.03836,    0.03890
   2       0.11475,   -0.73407    -0.10450,    0.65894    -0.01871,    0.00273    -0.04213,   -0.02695
   3      -0.05574,    0.00210    -0.00225,    0.03594     0.47950,   -0.53191     0.46308,   -0.51797
   4       0.02509,   -0.02259    -0.01276,   -0.02710     0.49244,   -0.49366    -0.50501,    0.50669

                     WFN1 Final Alpha Natural Orbital Analysis
                     -----------------------------------------

 Vector    1  Occ=1.000000D+00  E= 0.000000D+00
              MO Center=  0.0D+00,  0.0D+00, -2.9D-01, r^2= 6.0D+00
   Bfn.  Coefficient  Atom+Function         Bfn.  Coefficient  Atom+Function  
  ----- ------------  ---------------      ----- ------------  ---------------
     2     -0.499359  1 H  s                  4     -0.440396  2 H  s          
     1     -0.319933  1 H  s                  3     -0.281951  2 H  s          

 Vector    2  Occ=1.000000D+00  E= 0.000000D+00
              MO Center=  0.0D+00,  0.0D+00,  2.9D-01, r^2= 6.0D+00
   Bfn.  Coefficient  Atom+Function         Bfn.  Coefficient  Atom+Function  
  ----- ------------  ---------------      ----- ------------  ---------------
     4      0.498871  2 H  s                  2     -0.439843  1 H  s          
     3      0.321251  2 H  s                  1     -0.283445  1 H  s          

 Vector    3  Occ=4.100729D-14  E= 0.000000D+00
              MO Center=  0.0D+00,  0.0D+00, -4.6D-02, r^2= 6.5D+00
   Bfn.  Coefficient  Atom+Function         Bfn.  Coefficient  Atom+Function  
  ----- ------------  ---------------      ----- ------------  ---------------
     1      0.897690  1 H  s                  3      0.879859  2 H  s          
     2     -0.818849  1 H  s                  4     -0.802515  2 H  s          

 Vector    4  Occ=6.383948D-15  E= 0.000000D+00
              MO Center=  0.0D+00,  0.0D+00,  4.6D-02, r^2= 6.5D+00
   Bfn.  Coefficient  Atom+Function         Bfn.  Coefficient  Atom+Function  
  ----- ------------  ---------------      ----- ------------  ---------------
     3      0.898841  2 H  s                  1     -0.881033  1 H  s          
     4     -0.823364  2 H  s                  2      0.807121  1 H  s          


                     WFN1 Final Beta Natural Orbital Analysis
                     ----------------------------------------

 Vector    1  Occ=0.000000D+00  E= 0.000000D+00
              MO Center=  0.0D+00,  0.0D+00, -1.3D-01, r^2= 6.2D+00
   Bfn.  Coefficient  Atom+Function         Bfn.  Coefficient  Atom+Function  
  ----- ------------  ---------------      ----- ------------  ---------------
     4     -0.575482  2 H  s                  2     -0.535766  1 H  s          
     1     -0.251983  1 H  s                  3     -0.152799  2 H  s          

 Vector    2  Occ=0.000000D+00  E= 0.000000D+00
              MO Center=  0.0D+00,  0.0D+00,  1.5D-01, r^2= 6.1D+00
   Bfn.  Coefficient  Atom+Function         Bfn.  Coefficient  Atom+Function  
  ----- ------------  ---------------      ----- ------------  ---------------
     4      0.515987  2 H  s                  2     -0.464512  1 H  s          
     1     -0.282572  1 H  s                  3      0.278239  2 H  s          

 Vector    3  Occ=0.000000D+00  E= 0.000000D+00
              MO Center=  0.0D+00,  0.0D+00, -5.6D-02, r^2= 6.3D+00
   Bfn.  Coefficient  Atom+Function         Bfn.  Coefficient  Atom+Function  
  ----- ------------  ---------------      ----- ------------  ---------------
     1      0.925289  1 H  s                  3      0.907206  2 H  s          
     2     -0.769822  1 H  s                  4     -0.739242  2 H  s          

 Vector    4  Occ=0.000000D+00  E= 0.000000D+00
              MO Center=  0.0D+00,  0.0D+00,  4.2D-02, r^2= 6.5D+00
   Bfn.  Coefficient  Atom+Function         Bfn.  Coefficient  Atom+Function  
  ----- ------------  ---------------      ----- ------------  ---------------
     3      0.917048  2 H  s                  1     -0.874793  1 H  s          
     2      0.818130  1 H  s                  4     -0.787959  2 H  s          


 Task  times  cpu:       12.4s     wall:       17.0s
 Summary of allocated global arrays
-----------------------------------
  No active global arrays



                         GA Statistics for process    0
                         ------------------------------

       create   destroy   get      put      acc     scatter   gather  read&inc
calls:   44       44     7.81e+06 2.70e+04 2.14e+04    0        0       11     
number of processes/call 1.00e+00 1.00e+00 1.00e+00 0.00e+00 0.00e+00
bytes total:             1.00e+09 4.78e+06 3.41e+06 0.00e+00 0.00e+00 8.80e+01
bytes remote:            0.00e+00 0.00e+00 0.00e+00 0.00e+00 0.00e+00 0.00e+00
Max memory consumed for GA by this process: 10624 bytes
MA_summarize_allocated_blocks: starting scan ...
MA_summarize_allocated_blocks: scan completed: 0 heap blocks, 0 stack blocks
MA usage statistics:

	allocation statistics:
					      heap	     stack
					      ----	     -----
	current number of blocks	         0	         0
	maximum number of blocks	        19	        17
	current total bytes		         0	         0
	maximum total bytes		   3204360	  22508648
	maximum total K-bytes		      3205	     22509
	maximum total M-bytes		         4	        23


                                NWChem Input Module
                                -------------------





                                     CITATION
                                     --------
                Please cite the following reference when publishing
                           results obtained with NWChem:

                 M. Valiev, E.J. Bylaska, N. Govind, K. Kowalski,
              T.P. Straatsma, H.J.J. van Dam, D. Wang, J. Nieplocha,
                        E. Apra, T.L. Windus, W.A. de Jong
                 "NWChem: a comprehensive and scalable open-source
                  solution for large scale molecular simulations"
                      Comput. Phys. Commun. 181, 1477 (2010)
                           doi:10.1016/j.cpc.2010.04.018

                                      AUTHORS
                                      -------
          E. Apra, E. J. Bylaska, W. A. de Jong, N. Govind, K. Kowalski,
       T. P. Straatsma, M. Valiev, H. J. J. van Dam, D. Wang, T. L. Windus,
        J. Hammond, J. Autschbach, K. Bhaskaran-Nair, J. Brabec, K. Lopata,
    S. A. Fischer, S. Krishnamoorthy, M. Jacquelin, W. Ma, M. Klemm, O. Villa,
      Y. Chen, V. Anisimov, F. Aquino, S. Hirata, M. T. Hackler, V. Konjkov,
      T. Risthaus, M. Malagoli, A. Marenich, A. Otero-de-la-Roza, J. Mullin,
        P. Nichols, R. Peverati, J. Pittner, Y. Zhao, P.-D. Fan, A. Fonari,
       M. Williamson, R. J. Harrison, J. R. Rehr, M. Dupuis, D. Silverstein,
    D. M. A. Smith, J. Nieplocha, V. Tipparaju, M. Krishnan, B. E. Van Kuiken,
        A. Vazquez-Mayagoitia, L. Jensen, M. Swart, Q. Wu, T. Van Voorhis,
     A. A. Auer, M. Nooijen, L. D. Crosby, E. Brown, G. Cisneros, G. I. Fann,
   H. Fruchtl, J. Garza, K. Hirao, R. A. Kendall, J. A. Nichols, K. Tsemekhman,
    K. Wolinski, J. Anchell, D. E. Bernholdt, P. Borowski, T. Clark, D. Clerc,
   H. Dachsel, M. J. O. Deegan, K. Dyall, D. Elwood, E. Glendening, M. Gutowski,
   A. C. Hess, J. Jaffe, B. G. Johnson, J. Ju, R. Kobayashi, R. Kutteh, Z. Lin,
   R. Littlefield, X. Long, B. Meng, T. Nakajima, S. Niu, L. Pollack, M. Rosing,
   K. Glaesemann, G. Sandrone, M. Stave, H. Taylor, G. Thomas, J. H. van Lenthe,
                               A. T. Wong, Z. Zhang.

 Total times  cpu:       12.4s     wall:       17.0s
