 argument  1 = input-wf.nw



============================== echo of input deck ==============================
echo
start wfn1_dat
geometry units au noautoz
  H 0 0 -1.24434600000000000000
  H 0 0  1.24434600000000000000
  symmetry cs
end
basis
  H library 6-31g
end
set wfn1:input_vectors "atomic"
set wfn1:solver "monte-carlo"
set wfn1:print_error F
set wfn1:t_initial 0.1
set wfn1:nopen 2
#set wfn1:corr_expr "wfn1_mx"
set wfn1:corr_expr "wfn1c"
set wfn1:t_bath 0.0
set wfn1:maxit  20000
task wfn1 energy
================================================================================


                                         
                                         


              Northwest Computational Chemistry Package (NWChem) 6.8
              ------------------------------------------------------


                    Environmental Molecular Sciences Laboratory
                       Pacific Northwest National Laboratory
                                Richland, WA 99352

                              Copyright (c) 1994-2015
                       Pacific Northwest National Laboratory
                            Battelle Memorial Institute

             NWChem is an open-source computational chemistry package
                        distributed under the terms of the
                      Educational Community License (ECL) 2.0
             A copy of the license is included with this distribution
                              in the LICENSE.TXT file

                                  ACKNOWLEDGMENT
                                  --------------

            This software and its documentation were developed at the
            EMSL at Pacific Northwest National Laboratory, a multiprogram
            national laboratory, operated for the U.S. Department of Energy
            by Battelle under Contract Number DE-AC05-76RL01830. Support
            for this work was provided by the Department of Energy Office
            of Biological and Environmental Research, Office of Basic
            Energy Sciences, and the Office of Advanced Scientific Computing.


           Job information
           ---------------

    hostname        = erato
    program         = ../../../bin/LINUX64/nwchem
    date            = Sat Mar  6 01:21:30 2021

    compiled        = Sat_Mar_06_01:07:04_2021
    source          = /home/hvandam/nwchem-1-wfn1
    nwchem branch   = Development
    nwchem revision = nwchem_on_git-124-gad72d19fff205e319ffbbf2bca37a04ded6ad57b
    ga revision     = nwchem_on_git-124-gad72d19
    use scalapack   = F
    input           = input-wf.nw
    prefix          = wfn1_dat.
    data base       = ./wfn1_dat.db
    status          = startup
    nproc           =        1
    time left       =     -1s



           Memory information
           ------------------

    heap     =   13107200 doubles =    100.0 Mbytes
    stack    =   13107197 doubles =    100.0 Mbytes
    global   =   26214400 doubles =    200.0 Mbytes (distinct from heap & stack)
    total    =   52428797 doubles =    400.0 Mbytes
    verify   = yes
    hardfail = no 


           Directory information
           ---------------------

  0 permanent = .
  0 scratch   = .




                                NWChem Input Module
                                -------------------


 Turning off AUTOSYM since
 SYMMETRY directive was detected!



                             Geometry "geometry" -> ""
                             -------------------------

 Output coordinates in a.u. (scale by  1.000000000 to convert to a.u.)

  No.       Tag          Charge          X              Y              Z
 ---- ---------------- ---------- -------------- -------------- --------------
    1 H                    1.0000     0.00000000     0.00000000    -1.24434600
    2 H                    1.0000     0.00000000     0.00000000     1.24434600

      Atomic Mass 
      ----------- 

      H                  1.007825


 Effective nuclear repulsion energy (a.u.)       0.4018175009

            Nuclear Dipole moment (a.u.) 
            ----------------------------
        X                 Y               Z
 ---------------- ---------------- ----------------
     0.0000000000     0.0000000000     0.0000000000

      Symmetry information
      --------------------

 Group name             Cs        
 Group number              2
 Group order               2
 No. of unique centers     1

      Symmetry unique atoms

     1


            XYZ format geometry
            -------------------
     2
 geometry
 H                     0.00000000     0.00000000    -0.65847959
 H                     0.00000000     0.00000000     0.65847959

                      Basis "ao basis" -> "" (cartesian)
                      -----
  H (Hydrogen)
  ------------
            Exponent  Coefficients 
       -------------- ---------------------------------------------------------
  1 S  1.87311370E+01  0.033495
  1 S  2.82539370E+00  0.234727
  1 S  6.40121700E-01  0.813757

  2 S  1.61277800E-01  1.000000



 Summary of "ao basis" -> "" (cartesian)
 ------------------------------------------------------------------------------
       Tag                 Description            Shells   Functions and Types
 ---------------- ------------------------------  ------  ---------------------
 H                           6-31g                   2        2   2s



                                NWChem WFN1 Module
                                ------------------



          No. of electrons :     2
           Alpha electrons :     2
            Beta electrons :     0
          Charge           :     0
          Spin multiplicity:     3

 HvD: wfn1_inpdft
 HvD: nquad_task =                     1
 HvD: iangquad   =                     0
 HvD: gridtype   = user      
 HvD: leb        =  T
 HvD: radgrid    = murakn    
 HvD: trunc_neigh=  T
 HvD: lssw       =  T
 HvD: whichssw   = erf1    
 HvD: mxnrad     =                     0
 HvD: mxnang     =                     0
 HVD: wfn1: movecs_in  = atomic                                                                                                                                                                                                                                                          
 HVD: wfn1: movecs_out = ./wfn1_dat.movecs                                                                                                                                                                                                                                               

      Superposition of Atomic Density Guess
      -------------------------------------

 Sum of atomic energies:          -0.99646508

      Non-variational initial energy
      ------------------------------

 Total energy =      -0.749472
 1-e energy   =      -1.783424
 2-e energy   =       0.632135
 HOMO         =      -0.377339
 LUMO         =       0.014482

 iteration              energy           error
 ---------              ------           -----
         0         -0.91985805        0.080000
         1         -0.92049501        0.080000
         2         -0.92206181        0.080000
         3         -0.92266354        0.080000
         4         -0.92351242        0.080000
         5         -0.92366865        0.080000
         6         -0.92582309        0.080000
         7         -0.92675550        0.080000
         8         -0.92750682        0.080000
         9         -0.92779084        0.080000
        10         -0.92836068        0.080000
        11         -0.92918688        0.080000
        12         -0.93106252        0.080000
        13         -0.93167523        0.080000
        14         -0.93230998        0.080000
        15         -0.93245303        0.080000
        16         -0.93323171        0.080000
        17         -0.93371522        0.080000
        18         -0.93414201        0.080000
        19         -0.93433520        0.080000
        20         -0.93449509        0.080000
        21         -0.93477409        0.080000
        22         -0.93483620        0.080000
        23         -0.93495504        0.080000
        24         -0.93497154        0.080000
        25         -0.93519088        0.080000
        26         -0.93529627        0.072635
        27         -0.93529854        0.072635
        28         -0.93532766        0.055470
        29         -0.93533124        0.055470
        30         -0.93535024        0.055470
        31         -0.93537399        0.055470
        32         -0.93538740        0.040762
        33         -0.93539527        0.031129
        34         -0.93541327        0.026685
        35         -0.93541960        0.026685
        36         -0.93542322        0.022875
        37         -0.93542713        0.019990
        38         -0.93542722        0.017136
        39         -0.93542860        0.012352
        40         -0.93542901        0.012352
        41         -0.93543029        0.010589
        42         -0.93543179        0.010589
        43         -0.93543252        0.010589
        44         -0.93543275        0.010589
        45         -0.93543399        0.010589
        46         -0.93543433        0.007781
        47         -0.93543446        0.007781
        48         -0.93543505        0.007781
        49         -0.93543517        0.007781
        50         -0.93543536        0.007781
        51         -0.93543606        0.007781
        52         -0.93543616        0.007781
        53         -0.93543669        0.007204
        54         -0.93543678        0.005828
        55         -0.93543680        0.005828
        56         -0.93543720        0.005828
        57         -0.93543729        0.004996
        58         -0.93543751        0.004996
        59         -0.93543767        0.004996
        60         -0.93543780        0.003147
        61         -0.93543784        0.003147
        62         -0.93543805        0.003147
        63         -0.93543806        0.002358
        64         -0.93543810        0.002358
        65         -0.93543811        0.001766
        66         -0.93543812        0.001766
        67         -0.93543814        0.001766
        68         -0.93543814        0.001766
        69         -0.93543816        0.001766
        70         -0.93543818        0.001766
        71         -0.93543822        0.001543
        72         -0.93543825        0.001543
        73         -0.93543825        0.001457
        74         -0.93543826        0.001457
        75         -0.93543829        0.001457
        76         -0.93543831        0.001273
        77         -0.93543832        0.000954
        78         -0.93543832        0.000954
        79         -0.93543833        0.000817
        80         -0.93543833        0.000817
        81         -0.93543834        0.000817
        82         -0.93543834        0.000601
        83         -0.93543834        0.000450
        84         -0.93543834        0.000450
        85         -0.93543834        0.000324
        86         -0.93543834        0.000324
        87         -0.93543834        0.000238
        88         -0.93543835        0.000238
        89         -0.93543835        0.000238
        90         -0.93543835        0.000238
        91         -0.93543835        0.000238
        92         -0.93543835        0.000208
        93         -0.93543835        0.000136
        94         -0.93543835        0.000117
        95         -0.93543835        0.000117
        96         -0.93543835        0.000100
        97         -0.93543835        0.000100
        98         -0.93543835        0.000100
        99         -0.93543835        0.000088
       100         -0.93543835        0.000088
       101         -0.93543835        0.000078
       102         -0.93543835        0.000078
       103         -0.93543835        0.000057
       104         -0.93543835        0.000057
       105         -0.93543835        0.000057
       106         -0.93543835        0.000035
       107         -0.93543835        0.000035
       108         -0.93543835        0.000035
       109         -0.93543835        0.000035
       110         -0.93543835        0.000019
       111         -0.93543835        0.000019
       112         -0.93543835        0.000017
       113         -0.93543835        0.000015
       114         -0.93543835        0.000011
       115         -0.93543835        0.000011
       116         -0.93543835        0.000011
       117         -0.93543835        0.000009
       118         -0.93543835        0.000008
       119         -0.93543835        0.000007
       120         -0.93543835        0.000006
       121         -0.93543835        0.000005
       122         -0.93543835        0.000005
       123         -0.93543835        0.000005
       124         -0.93543835        0.000005
       125         -0.93543835        0.000004
       126         -0.93543835        0.000004
       127         -0.93543835        0.000003
       128         -0.93543835        0.000003
       129         -0.93543835        0.000003
       130         -0.93543835        0.000002
       131         -0.93543835        0.000002
       132         -0.93543835        0.000002
       133         -0.93543835        0.000002
       134         -0.93543835        0.000002
       135         -0.93543835        0.000002
       136         -0.93543835        0.000001
       137         -0.93543835        0.000001
       138         -0.93543835        0.000001
       139         -0.93543835        0.000001

 Reached Convergence

 WFN1                     :
 --------------------------
 Total WFN1 energy  =          -0.9354383489
 1-Electron energy  =          -1.6618283733
 2-Electron energy  =           0.3245725234
 Correlation energy =           0.0000000000
 DFT XC energy      =           0.0000000000
 Entropy energy     =           0.0000000000
 Nuclear energy     =           0.4018175009

 conventional Hartree-Fock:
 --------------------------
 Total SCF energy  =          -0.9354383489
 2-Electron energy =           0.3245725234

                WFN1 Final Natural orbital energies and occupations
                ---------------------------------------------------

              Alpha       Beta            Alpha       Beta  
            --------    --------        --------    --------
       1      0.0000      0.0000          1.0000      0.0000
       2      0.0000      0.0000          1.0000      0.0000
       3      0.0000      0.0000          0.0000      0.0000
       4      0.0000      0.0000          0.0000      0.0000

             WFN1 Final Correlation function energies and occupations
             --------------------------------------------------------

              Alpha       Beta            Alpha       Beta  
            --------    --------        --------    --------
       1      0.0000      0.0000          1.0000      0.0000
       2      0.0000      0.0000          1.0000      0.0000
       3      0.0000      0.0000          0.0000      0.0000
       4      0.0000      0.0000          0.0000      0.0000

                WFN1 Final alpha-alpha 2-matrix occupation numbers
                --------------------------------------------------


 global array: g_momo1[1:4,1:4],  handle: -990 

            1           2           3           4  
       ----------- ----------- ----------- -----------
   1       0.00000     1.00000     0.00000     0.00000
   2       1.00000     0.00000     0.00000     0.00000
   3       0.00000     0.00000    -0.00000     0.00000
   4       0.00000     0.00000     0.00000     0.00000

                 WFN1 Final beta-beta 2-matrix occupation numbers
                 ------------------------------------------------


 global array: g_momo2[1:4,1:4],  handle: -989 

            1           2           3           4  
       ----------- ----------- ----------- -----------
   1       0.00000     0.00000     0.00000     0.00000
   2       0.00000     0.00000     0.00000     0.00000
   3       0.00000     0.00000     0.00000     0.00000
   4       0.00000     0.00000     0.00000     0.00000

                  WFN1 Final alpha Correlation Function Analysis
                  ----------------------------------------------


 global array: Ca[1:4,1:4],  handle: -977 

                     1                       2                       3                       4  
       ----------------------- ----------------------- ----------------------- -----------------------
   1       0.80854,   -0.57625    -0.06098,    0.10240    -0.00000,    0.00000    -0.00000,   -0.00000
   2      -0.06606,    0.09920    -0.17094,    0.97805     0.00000,   -0.00000     0.00000,   -0.00000
   3       0.00000,    0.00000     0.00000,    0.00000     0.28469,    0.64304     0.28679,    0.65054
   4       0.00000,   -0.00000     0.00000,    0.00000    -0.54321,   -0.45867     0.53661,    0.45453

                   WFN1 Final beta Correlation Function Analysis
                   ---------------------------------------------


 global array: Cb[1:4,1:4],  handle: -976 

                     1                       2                       3                       4  
       ----------------------- ----------------------- ----------------------- -----------------------
   1       0.80955,   -0.57115    -0.10084,    0.07129     0.00521,   -0.03412     0.04270,    0.01236
   2      -0.02001,    0.12057    -0.16204,    0.97532    -0.05669,    0.03557     0.00031,    0.05552
   3      -0.02958,   -0.03466    -0.05679,   -0.04302     0.34623,    0.63832     0.32977,    0.59730
   4      -0.02986,    0.02265     0.02627,   -0.03849    -0.47848,   -0.48791     0.51500,    0.51401

                     WFN1 Final Alpha Natural Orbital Analysis
                     -----------------------------------------

 Vector    1  Occ=1.000000D+00  E= 0.000000D+00
              MO Center=  0.0D+00,  0.0D+00,  3.9D-02, r^2= 1.1D+00
   Bfn.  Coefficient  Atom+Function         Bfn.  Coefficient  Atom+Function  
  ----- ------------  ---------------      ----- ------------  ---------------
     4     -0.363399  2 H  s                  2     -0.323855  1 H  s          
     3     -0.319840  2 H  s                  1     -0.302574  1 H  s          

 Vector    2  Occ=1.000000D+00  E= 0.000000D+00
              MO Center=  0.0D+00,  0.0D+00, -3.9D-02, r^2= 1.6D+00
   Bfn.  Coefficient  Atom+Function         Bfn.  Coefficient  Atom+Function  
  ----- ------------  ---------------      ----- ------------  ---------------
     2     -0.760673  1 H  s                  4      0.742594  2 H  s          
     1     -0.336381  1 H  s                  3      0.320009  2 H  s          

 Vector    3  Occ=1.202348D-14  E= 0.000000D+00
              MO Center=  0.0D+00,  0.0D+00, -1.6D-01, r^2= 1.7D+00
   Bfn.  Coefficient  Atom+Function         Bfn.  Coefficient  Atom+Function  
  ----- ------------  ---------------      ----- ------------  ---------------
     1     -0.992771  1 H  s                  2      0.834195  1 H  s          
     3     -0.819562  2 H  s                  4      0.596630  2 H  s          

 Vector    4  Occ=4.911934D-16  E= 0.000000D+00
              MO Center=  0.0D+00,  0.0D+00,  1.6D-01, r^2= 2.0D+00
   Bfn.  Coefficient  Atom+Function         Bfn.  Coefficient  Atom+Function  
  ----- ------------  ---------------      ----- ------------  ---------------
     4     -1.283691  2 H  s                  2      1.143656  1 H  s          
     3      0.973581  2 H  s                  1     -0.796207  1 H  s          


                     WFN1 Final Beta Natural Orbital Analysis
                     ----------------------------------------

 Vector    1  Occ=0.000000D+00  E= 0.000000D+00
              MO Center=  0.0D+00,  0.0D+00,  2.5D-02, r^2= 1.2D+00
   Bfn.  Coefficient  Atom+Function         Bfn.  Coefficient  Atom+Function  
  ----- ------------  ---------------      ----- ------------  ---------------
     2     -0.418172  1 H  s                  4     -0.419263  2 H  s          
     3     -0.228248  2 H  s                  1     -0.195485  1 H  s          

 Vector    2  Occ=0.000000D+00  E= 0.000000D+00
              MO Center=  0.0D+00,  0.0D+00, -5.7D-02, r^2= 1.8D+00
   Bfn.  Coefficient  Atom+Function         Bfn.  Coefficient  Atom+Function  
  ----- ------------  ---------------      ----- ------------  ---------------
     2     -0.919314  1 H  s                  4      0.748736  2 H  s          
     3      0.363879  2 H  s                  1     -0.156398  1 H  s          

 Vector    3  Occ=0.000000D+00  E= 0.000000D+00
              MO Center=  0.0D+00,  0.0D+00, -3.6D-02, r^2= 1.6D+00
   Bfn.  Coefficient  Atom+Function         Bfn.  Coefficient  Atom+Function  
  ----- ------------  ---------------      ----- ------------  ---------------
     1     -0.999422  1 H  s                  3     -0.864998  2 H  s          
     4      0.720422  2 H  s                  2      0.623012  1 H  s          

 Vector    4  Occ=0.000000D+00  E= 0.000000D+00
              MO Center=  0.0D+00,  0.0D+00,  6.8D-02, r^2= 1.9D+00
   Bfn.  Coefficient  Atom+Function         Bfn.  Coefficient  Atom+Function  
  ----- ------------  ---------------      ----- ------------  ---------------
     4     -1.196637  2 H  s                  2      1.131011  1 H  s          
     3      0.944202  2 H  s                  1     -0.873342  1 H  s          


 Task  times  cpu:       14.3s     wall:       21.1s
 Summary of allocated global arrays
-----------------------------------
  No active global arrays



                         GA Statistics for process    0
                         ------------------------------

       create   destroy   get      put      acc     scatter   gather  read&inc
calls:   44       44     7.95e+06 2.75e+04 2.18e+04    0        0       11     
number of processes/call 1.00e+00 1.00e+00 1.00e+00 0.00e+00 0.00e+00
bytes total:             1.02e+09 4.86e+06 3.47e+06 0.00e+00 0.00e+00 8.80e+01
bytes remote:            0.00e+00 0.00e+00 0.00e+00 0.00e+00 0.00e+00 0.00e+00
Max memory consumed for GA by this process: 10624 bytes
MA_summarize_allocated_blocks: starting scan ...
MA_summarize_allocated_blocks: scan completed: 0 heap blocks, 0 stack blocks
MA usage statistics:

	allocation statistics:
					      heap	     stack
					      ----	     -----
	current number of blocks	         0	         0
	maximum number of blocks	        19	        17
	current total bytes		         0	         0
	maximum total bytes		   3204328	  22508616
	maximum total K-bytes		      3205	     22509
	maximum total M-bytes		         4	        23


                                NWChem Input Module
                                -------------------





                                     CITATION
                                     --------
                Please cite the following reference when publishing
                           results obtained with NWChem:

                 M. Valiev, E.J. Bylaska, N. Govind, K. Kowalski,
              T.P. Straatsma, H.J.J. van Dam, D. Wang, J. Nieplocha,
                        E. Apra, T.L. Windus, W.A. de Jong
                 "NWChem: a comprehensive and scalable open-source
                  solution for large scale molecular simulations"
                      Comput. Phys. Commun. 181, 1477 (2010)
                           doi:10.1016/j.cpc.2010.04.018

                                      AUTHORS
                                      -------
          E. Apra, E. J. Bylaska, W. A. de Jong, N. Govind, K. Kowalski,
       T. P. Straatsma, M. Valiev, H. J. J. van Dam, D. Wang, T. L. Windus,
        J. Hammond, J. Autschbach, K. Bhaskaran-Nair, J. Brabec, K. Lopata,
    S. A. Fischer, S. Krishnamoorthy, M. Jacquelin, W. Ma, M. Klemm, O. Villa,
      Y. Chen, V. Anisimov, F. Aquino, S. Hirata, M. T. Hackler, V. Konjkov,
      T. Risthaus, M. Malagoli, A. Marenich, A. Otero-de-la-Roza, J. Mullin,
        P. Nichols, R. Peverati, J. Pittner, Y. Zhao, P.-D. Fan, A. Fonari,
       M. Williamson, R. J. Harrison, J. R. Rehr, M. Dupuis, D. Silverstein,
    D. M. A. Smith, J. Nieplocha, V. Tipparaju, M. Krishnan, B. E. Van Kuiken,
        A. Vazquez-Mayagoitia, L. Jensen, M. Swart, Q. Wu, T. Van Voorhis,
     A. A. Auer, M. Nooijen, L. D. Crosby, E. Brown, G. Cisneros, G. I. Fann,
   H. Fruchtl, J. Garza, K. Hirao, R. A. Kendall, J. A. Nichols, K. Tsemekhman,
    K. Wolinski, J. Anchell, D. E. Bernholdt, P. Borowski, T. Clark, D. Clerc,
   H. Dachsel, M. J. O. Deegan, K. Dyall, D. Elwood, E. Glendening, M. Gutowski,
   A. C. Hess, J. Jaffe, B. G. Johnson, J. Ju, R. Kobayashi, R. Kutteh, Z. Lin,
   R. Littlefield, X. Long, B. Meng, T. Nakajima, S. Niu, L. Pollack, M. Rosing,
   K. Glaesemann, G. Sandrone, M. Stave, H. Taylor, G. Thomas, J. H. van Lenthe,
                               A. T. Wong, Z. Zhang.

 Total times  cpu:       14.4s     wall:       21.2s
