 argument  1 = input-wf.nw



============================== echo of input deck ==============================
echo
start wfn1_dat
geometry units au noautoz
  H 0 0 -5.64434600000000000000
  H 0 0  5.64434600000000000000
  symmetry cs
end
basis
  H library 6-31g
end
set wfn1:input_vectors "atomic"
set wfn1:solver "monte-carlo"
set wfn1:print_error F
set wfn1:t_initial 0.1
set wfn1:nopen 2
#set wfn1:corr_expr "wfn1_mx"
set wfn1:corr_expr "wfn1c"
set wfn1:t_bath 0.0
set wfn1:maxit  20000
task wfn1 energy
================================================================================


                                         
                                         


              Northwest Computational Chemistry Package (NWChem) 6.8
              ------------------------------------------------------


                    Environmental Molecular Sciences Laboratory
                       Pacific Northwest National Laboratory
                                Richland, WA 99352

                              Copyright (c) 1994-2015
                       Pacific Northwest National Laboratory
                            Battelle Memorial Institute

             NWChem is an open-source computational chemistry package
                        distributed under the terms of the
                      Educational Community License (ECL) 2.0
             A copy of the license is included with this distribution
                              in the LICENSE.TXT file

                                  ACKNOWLEDGMENT
                                  --------------

            This software and its documentation were developed at the
            EMSL at Pacific Northwest National Laboratory, a multiprogram
            national laboratory, operated for the U.S. Department of Energy
            by Battelle under Contract Number DE-AC05-76RL01830. Support
            for this work was provided by the Department of Energy Office
            of Biological and Environmental Research, Office of Basic
            Energy Sciences, and the Office of Advanced Scientific Computing.


           Job information
           ---------------

    hostname        = erato
    program         = ../../../bin/LINUX64/nwchem
    date            = Sat Mar  6 01:52:50 2021

    compiled        = Sat_Mar_06_01:07:04_2021
    source          = /home/hvandam/nwchem-1-wfn1
    nwchem branch   = Development
    nwchem revision = nwchem_on_git-124-gad72d19fff205e319ffbbf2bca37a04ded6ad57b
    ga revision     = nwchem_on_git-124-gad72d19
    use scalapack   = F
    input           = input-wf.nw
    prefix          = wfn1_dat.
    data base       = ./wfn1_dat.db
    status          = startup
    nproc           =        1
    time left       =     -1s



           Memory information
           ------------------

    heap     =   13107198 doubles =    100.0 Mbytes
    stack    =   13107195 doubles =    100.0 Mbytes
    global   =   26214400 doubles =    200.0 Mbytes (distinct from heap & stack)
    total    =   52428793 doubles =    400.0 Mbytes
    verify   = yes
    hardfail = no 


           Directory information
           ---------------------

  0 permanent = .
  0 scratch   = .




                                NWChem Input Module
                                -------------------


 Turning off AUTOSYM since
 SYMMETRY directive was detected!



                             Geometry "geometry" -> ""
                             -------------------------

 Output coordinates in a.u. (scale by  1.000000000 to convert to a.u.)

  No.       Tag          Charge          X              Y              Z
 ---- ---------------- ---------- -------------- -------------- --------------
    1 H                    1.0000     0.00000000     0.00000000    -5.64434600
    2 H                    1.0000     0.00000000     0.00000000     5.64434600

      Atomic Mass 
      ----------- 

      H                  1.007825


 Effective nuclear repulsion energy (a.u.)       0.0885842222

            Nuclear Dipole moment (a.u.) 
            ----------------------------
        X                 Y               Z
 ---------------- ---------------- ----------------
     0.0000000000     0.0000000000     0.0000000000

      Symmetry information
      --------------------

 Group name             Cs        
 Group number              2
 Group order               2
 No. of unique centers     1

      Symmetry unique atoms

     1


            XYZ format geometry
            -------------------
     2
 geometry
 H                     0.00000000     0.00000000    -2.98685949
 H                     0.00000000     0.00000000     2.98685949

                      Basis "ao basis" -> "" (cartesian)
                      -----
  H (Hydrogen)
  ------------
            Exponent  Coefficients 
       -------------- ---------------------------------------------------------
  1 S  1.87311370E+01  0.033495
  1 S  2.82539370E+00  0.234727
  1 S  6.40121700E-01  0.813757

  2 S  1.61277800E-01  1.000000



 Summary of "ao basis" -> "" (cartesian)
 ------------------------------------------------------------------------------
       Tag                 Description            Shells   Functions and Types
 ---------------- ------------------------------  ------  ---------------------
 H                           6-31g                   2        2   2s



                                NWChem WFN1 Module
                                ------------------



          No. of electrons :     2
           Alpha electrons :     2
            Beta electrons :     0
          Charge           :     0
          Spin multiplicity:     3

 HvD: wfn1_inpdft
 HvD: nquad_task =                     1
 HvD: iangquad   =                     0
 HvD: gridtype   = user      
 HvD: leb        =  T
 HvD: radgrid    = murakn    
 HvD: trunc_neigh=  T
 HvD: lssw       =  T
 HvD: whichssw   = erf1    
 HvD: mxnrad     =                     0
 HvD: mxnang     =                     0
 HVD: wfn1: movecs_in  = atomic                                                                                                                                                                                                                                                          
 HVD: wfn1: movecs_out = ./wfn1_dat.movecs                                                                                                                                                                                                                                               

      Superposition of Atomic Density Guess
      -------------------------------------

 Sum of atomic energies:          -0.99646508

      Non-variational initial energy
      ------------------------------

 Total energy =      -0.682110
 1-e energy   =      -1.173634
 2-e energy   =       0.402940
 HOMO         =      -0.191213
 LUMO         =      -0.191159

 iteration              energy           error
 ---------              ------           -----
         0         -0.98469733        0.080000
         1         -0.98559124        0.080000
         2         -0.98586319        0.080000
         3         -0.98654816        0.080000
         4         -0.98738944        0.080000
         5         -0.98759554        0.080000
         6         -0.98776234        0.080000
         7         -0.98849376        0.080000
         8         -0.98934640        0.080000
         9         -0.99004423        0.080000
        10         -0.99071974        0.080000
        11         -0.99091000        0.080000
        12         -0.99156609        0.080000
        13         -0.99188480        0.080000
        14         -0.99221925        0.080000
        15         -0.99281759        0.080000
        16         -0.99298894        0.080000
        17         -0.99344590        0.080000
        18         -0.99436670        0.080000
        19         -0.99482073        0.080000
        20         -0.99507308        0.080000
        21         -0.99540354        0.080000
        22         -0.99550510        0.080000
        23         -0.99584276        0.080000
        24         -0.99586215        0.080000
        25         -0.99591308        0.080000
        26         -0.99593194        0.080000
        27         -0.99599914        0.080000
        28         -0.99605968        0.078446
        29         -0.99612594        0.078446
        30         -0.99613847        0.068553
        31         -0.99614359        0.068553
        32         -0.99617172        0.068553
        33         -0.99626263        0.068553
        34         -0.99632350        0.068553
        35         -0.99636443        0.059907
        36         -0.99640963        0.059907
        37         -0.99644249        0.046639
        38         -0.99644386        0.040757
        39         -0.99644504        0.040757
        40         -0.99645177        0.040757
        41         -0.99645313        0.040757
        42         -0.99645572        0.017469
        43         -0.99645618        0.017469
        44         -0.99645801        0.013341
        45         -0.99646053        0.011658
        46         -0.99646269        0.011658
        47         -0.99646429        0.008404
        48         -0.99646475        0.008404
        49         -0.99646494        0.005193
        50         -0.99646525        0.004538
        51         -0.99646528        0.003890
        52         -0.99646538        0.003890
        53         -0.99646541        0.003890
        54         -0.99646556        0.003890
        55         -0.99646564        0.002804
        56         -0.99646564        0.002141
        57         -0.99646568        0.001544
        58         -0.99646571        0.001544
        59         -0.99646573        0.001323
        60         -0.99646576        0.001323
        61         -0.99646576        0.001323
        62         -0.99646577        0.001323
        63         -0.99646577        0.001323
        64         -0.99646579        0.001323
        65         -0.99646579        0.000972
        66         -0.99646580        0.000918
        67         -0.99646580        0.000556
        68         -0.99646580        0.000477
        69         -0.99646581        0.000477
        70         -0.99646581        0.000477
        71         -0.99646581        0.000409
        72         -0.99646582        0.000306
        73         -0.99646582        0.000263
        74         -0.99646582        0.000263
        75         -0.99646582        0.000263
        76         -0.99646582        0.000263
        77         -0.99646582        0.000225
        78         -0.99646582        0.000225
        79         -0.99646582        0.000225
        80         -0.99646582        0.000204
        81         -0.99646582        0.000153
        82         -0.99646582        0.000093
        83         -0.99646582        0.000093
        84         -0.99646582        0.000093
        85         -0.99646582        0.000080
        86         -0.99646582        0.000050
        87         -0.99646582        0.000050
        88         -0.99646582        0.000050
        89         -0.99646582        0.000043
        90         -0.99646582        0.000043
        91         -0.99646582        0.000032
        92         -0.99646582        0.000032
        93         -0.99646582        0.000017
        94         -0.99646582        0.000017
        95         -0.99646582        0.000017
        96         -0.99646582        0.000017
        97         -0.99646582        0.000015
        98         -0.99646582        0.000011
        99         -0.99646582        0.000008
       100         -0.99646582        0.000008
       101         -0.99646582        0.000008
       102         -0.99646582        0.000005
       103         -0.99646582        0.000005
       104         -0.99646582        0.000005
       105         -0.99646582        0.000004
       106         -0.99646582        0.000004
       107         -0.99646582        0.000003
       108         -0.99646582        0.000003
       109         -0.99646582        0.000002
       110         -0.99646582        0.000002
       111         -0.99646582        0.000002
       112         -0.99646582        0.000002
       113         -0.99646582        0.000002
       114         -0.99646582        0.000002
       115         -0.99646582        0.000002
       116         -0.99646582        0.000002
       117         -0.99646582        0.000002
       118         -0.99646582        0.000001

 Reached Convergence

 WFN1                     :
 --------------------------
 Total WFN1 energy  =          -0.9964658222
 1-Electron energy  =          -1.1736342670
 2-Electron energy  =           0.0885842226
 Correlation energy =           0.0000000000
 DFT XC energy      =           0.0000000000
 Entropy energy     =           0.0000000000
 Nuclear energy     =           0.0885842222

 conventional Hartree-Fock:
 --------------------------
 Total SCF energy  =          -0.9964658222
 2-Electron energy =           0.0885842226

                WFN1 Final Natural orbital energies and occupations
                ---------------------------------------------------

              Alpha       Beta            Alpha       Beta  
            --------    --------        --------    --------
       1      0.0000      0.0000          1.0000      0.0000
       2      0.0000      0.0000          1.0000      0.0000
       3      0.0000      0.0000          0.0000      0.0000
       4      0.0000      0.0000          0.0000      0.0000

             WFN1 Final Correlation function energies and occupations
             --------------------------------------------------------

              Alpha       Beta            Alpha       Beta  
            --------    --------        --------    --------
       1      0.0000      0.0000          1.0000      0.0000
       2      0.0000      0.0000          1.0000      0.0000
       3      0.0000      0.0000          0.0000      0.0000
       4      0.0000      0.0000          0.0000      0.0000

                WFN1 Final alpha-alpha 2-matrix occupation numbers
                --------------------------------------------------


 global array: g_momo1[1:4,1:4],  handle: -990 

            1           2           3           4  
       ----------- ----------- ----------- -----------
   1       0.00000     1.00000     0.00000     0.00000
   2       1.00000     0.00000     0.00000     0.00000
   3       0.00000     0.00000     0.00000     0.00000
   4       0.00000     0.00000     0.00000    -0.00000

                 WFN1 Final beta-beta 2-matrix occupation numbers
                 ------------------------------------------------


 global array: g_momo2[1:4,1:4],  handle: -989 

            1           2           3           4  
       ----------- ----------- ----------- -----------
   1       0.00000     0.00000     0.00000     0.00000
   2       0.00000     0.00000     0.00000     0.00000
   3       0.00000     0.00000     0.00000     0.00000
   4       0.00000     0.00000     0.00000     0.00000

                  WFN1 Final alpha Correlation Function Analysis
                  ----------------------------------------------


 global array: Ca[1:4,1:4],  handle: -981 

                     1                       2                       3                       4  
       ----------------------- ----------------------- ----------------------- -----------------------
   1       0.62039,    0.16955     0.73712,    0.20740     0.00000,   -0.00000    -0.00000,   -0.00000
   2       0.07136,    0.76241    -0.05513,   -0.64078     0.00000,    0.00000    -0.00000,   -0.00000
   3      -0.00000,    0.00000     0.00000,    0.00000     0.01778,    0.70833     0.01641,    0.70546
   4       0.00000,    0.00000    -0.00000,   -0.00000    -0.54883,    0.44355     0.55191,   -0.44436

                   WFN1 Final beta Correlation Function Analysis
                   ---------------------------------------------


 global array: Cb[1:4,1:4],  handle: -980 

                     1                       2                       3                       4  
       ----------------------- ----------------------- ----------------------- -----------------------
   1       0.69760,    0.17340     0.66765,    0.16676     0.04920,    0.08544     0.00081,    0.00030
   2       0.04125,    0.68850    -0.05117,   -0.71619     0.05777,    0.03020     0.03647,   -0.05603
   3       0.00926,   -0.02844    -0.08641,   -0.04075     0.02137,    0.72194     0.02404,    0.68393
   4       0.04237,   -0.06978    -0.03459,   -0.02359    -0.53811,    0.41812     0.56687,   -0.45372

                     WFN1 Final Alpha Natural Orbital Analysis
                     -----------------------------------------

 Vector    1  Occ=1.000000D+00  E= 0.000000D+00
              MO Center=  0.0D+00,  0.0D+00,  2.0D-01, r^2= 9.7D+00
   Bfn.  Coefficient  Atom+Function         Bfn.  Coefficient  Atom+Function  
  ----- ------------  ---------------      ----- ------------  ---------------
     4     -0.486095  2 H  s                  2     -0.454489  1 H  s          
     3     -0.312198  2 H  s                  1     -0.291895  1 H  s          

 Vector    2  Occ=1.000000D+00  E= 0.000000D+00
              MO Center=  0.0D+00,  0.0D+00, -2.0D-01, r^2= 9.7D+00
   Bfn.  Coefficient  Atom+Function         Bfn.  Coefficient  Atom+Function  
  ----- ------------  ---------------      ----- ------------  ---------------
     2      0.486068  1 H  s                  4     -0.454460  2 H  s          
     1      0.312240  1 H  s                  3     -0.291940  2 H  s          

 Vector    3  Occ=4.106600D-15  E= 0.000000D+00
              MO Center=  0.0D+00,  0.0D+00, -1.3D-01, r^2= 1.0D+01
   Bfn.  Coefficient  Atom+Function         Bfn.  Coefficient  Atom+Function  
  ----- ------------  ---------------      ----- ------------  ---------------
     1     -0.908755  1 H  s                  3     -0.869598  2 H  s          
     2      0.830657  1 H  s                  4      0.794862  2 H  s          

 Vector    4  Occ=1.526577D-14  E= 0.000000D+00
              MO Center=  0.0D+00,  0.0D+00,  1.3D-01, r^2= 1.0D+01
   Bfn.  Coefficient  Atom+Function         Bfn.  Coefficient  Atom+Function  
  ----- ------------  ---------------      ----- ------------  ---------------
     3      0.908766  2 H  s                  1     -0.869609  1 H  s          
     4     -0.830738  2 H  s                  2      0.794946  1 H  s          


                     WFN1 Final Beta Natural Orbital Analysis
                     ----------------------------------------

 Vector    1  Occ=0.000000D+00  E= 0.000000D+00
              MO Center=  0.0D+00,  0.0D+00,  2.1D-01, r^2= 9.8D+00
   Bfn.  Coefficient  Atom+Function         Bfn.  Coefficient  Atom+Function  
  ----- ------------  ---------------      ----- ------------  ---------------
     4     -0.550089  2 H  s                  2     -0.495789  1 H  s          
     1     -0.244104  1 H  s                  3     -0.241025  2 H  s          

 Vector    2  Occ=0.000000D+00  E= 0.000000D+00
              MO Center=  0.0D+00,  0.0D+00, -2.1D-01, r^2= 9.8D+00
   Bfn.  Coefficient  Atom+Function         Bfn.  Coefficient  Atom+Function  
  ----- ------------  ---------------      ----- ------------  ---------------
     2      0.565075  1 H  s                  4     -0.497626  2 H  s          
     3     -0.241723  2 H  s                  1      0.223541  1 H  s          

 Vector    3  Occ=0.000000D+00  E= 0.000000D+00
              MO Center=  0.0D+00,  0.0D+00,  7.3D-02, r^2= 1.0D+01
   Bfn.  Coefficient  Atom+Function         Bfn.  Coefficient  Atom+Function  
  ----- ------------  ---------------      ----- ------------  ---------------
     3     -0.913793  2 H  s                  1     -0.900996  1 H  s          
     4      0.799075  2 H  s                  2      0.759766  1 H  s          

 Vector    4  Occ=0.000000D+00  E= 0.000000D+00
              MO Center=  0.0D+00,  0.0D+00, -7.1D-02, r^2= 1.0D+01
   Bfn.  Coefficient  Atom+Function         Bfn.  Coefficient  Atom+Function  
  ----- ------------  ---------------      ----- ------------  ---------------
     1     -0.918369  1 H  s                  3      0.901783  2 H  s          
     2      0.788919  1 H  s                  4     -0.758948  2 H  s          


 Task  times  cpu:       11.2s     wall:       15.7s
 Summary of allocated global arrays
-----------------------------------
  No active global arrays



                         GA Statistics for process    0
                         ------------------------------

       create   destroy   get      put      acc     scatter   gather  read&inc
calls:   44       44     7.32e+06 2.54e+04 2.01e+04    0        0       10     
number of processes/call 1.00e+00 1.00e+00 1.00e+00 0.00e+00 0.00e+00
bytes total:             9.41e+08 4.48e+06 3.20e+06 0.00e+00 0.00e+00 8.00e+01
bytes remote:            0.00e+00 0.00e+00 0.00e+00 0.00e+00 0.00e+00 0.00e+00
Max memory consumed for GA by this process: 10624 bytes
MA_summarize_allocated_blocks: starting scan ...
MA_summarize_allocated_blocks: scan completed: 0 heap blocks, 0 stack blocks
MA usage statistics:

	allocation statistics:
					      heap	     stack
					      ----	     -----
	current number of blocks	         0	         0
	maximum number of blocks	        19	        17
	current total bytes		         0	         0
	maximum total bytes		   3204344	  22508664
	maximum total K-bytes		      3205	     22509
	maximum total M-bytes		         4	        23


                                NWChem Input Module
                                -------------------





                                     CITATION
                                     --------
                Please cite the following reference when publishing
                           results obtained with NWChem:

                 M. Valiev, E.J. Bylaska, N. Govind, K. Kowalski,
              T.P. Straatsma, H.J.J. van Dam, D. Wang, J. Nieplocha,
                        E. Apra, T.L. Windus, W.A. de Jong
                 "NWChem: a comprehensive and scalable open-source
                  solution for large scale molecular simulations"
                      Comput. Phys. Commun. 181, 1477 (2010)
                           doi:10.1016/j.cpc.2010.04.018

                                      AUTHORS
                                      -------
          E. Apra, E. J. Bylaska, W. A. de Jong, N. Govind, K. Kowalski,
       T. P. Straatsma, M. Valiev, H. J. J. van Dam, D. Wang, T. L. Windus,
        J. Hammond, J. Autschbach, K. Bhaskaran-Nair, J. Brabec, K. Lopata,
    S. A. Fischer, S. Krishnamoorthy, M. Jacquelin, W. Ma, M. Klemm, O. Villa,
      Y. Chen, V. Anisimov, F. Aquino, S. Hirata, M. T. Hackler, V. Konjkov,
      T. Risthaus, M. Malagoli, A. Marenich, A. Otero-de-la-Roza, J. Mullin,
        P. Nichols, R. Peverati, J. Pittner, Y. Zhao, P.-D. Fan, A. Fonari,
       M. Williamson, R. J. Harrison, J. R. Rehr, M. Dupuis, D. Silverstein,
    D. M. A. Smith, J. Nieplocha, V. Tipparaju, M. Krishnan, B. E. Van Kuiken,
        A. Vazquez-Mayagoitia, L. Jensen, M. Swart, Q. Wu, T. Van Voorhis,
     A. A. Auer, M. Nooijen, L. D. Crosby, E. Brown, G. Cisneros, G. I. Fann,
   H. Fruchtl, J. Garza, K. Hirao, R. A. Kendall, J. A. Nichols, K. Tsemekhman,
    K. Wolinski, J. Anchell, D. E. Bernholdt, P. Borowski, T. Clark, D. Clerc,
   H. Dachsel, M. J. O. Deegan, K. Dyall, D. Elwood, E. Glendening, M. Gutowski,
   A. C. Hess, J. Jaffe, B. G. Johnson, J. Ju, R. Kobayashi, R. Kutteh, Z. Lin,
   R. Littlefield, X. Long, B. Meng, T. Nakajima, S. Niu, L. Pollack, M. Rosing,
   K. Glaesemann, G. Sandrone, M. Stave, H. Taylor, G. Thomas, J. H. van Lenthe,
                               A. T. Wong, Z. Zhang.

 Total times  cpu:       11.2s     wall:       15.7s
