 argument  1 = input-wf.nw



============================== echo of input deck ==============================
echo
start wfn1_dat
geometry units au noautoz
  H 0 0 -5.59434600000000000000
  H 0 0  5.59434600000000000000
  symmetry cs
end
basis
  H library 6-31g
end
set wfn1:input_vectors "atomic"
set wfn1:solver "monte-carlo"
set wfn1:print_error F
set wfn1:t_initial 0.1
set wfn1:nopen 2
#set wfn1:corr_expr "wfn1_mx"
set wfn1:corr_expr "wfn1c"
set wfn1:t_bath 0.0
set wfn1:maxit  20000
task wfn1 energy
================================================================================


                                         
                                         


              Northwest Computational Chemistry Package (NWChem) 6.8
              ------------------------------------------------------


                    Environmental Molecular Sciences Laboratory
                       Pacific Northwest National Laboratory
                                Richland, WA 99352

                              Copyright (c) 1994-2015
                       Pacific Northwest National Laboratory
                            Battelle Memorial Institute

             NWChem is an open-source computational chemistry package
                        distributed under the terms of the
                      Educational Community License (ECL) 2.0
             A copy of the license is included with this distribution
                              in the LICENSE.TXT file

                                  ACKNOWLEDGMENT
                                  --------------

            This software and its documentation were developed at the
            EMSL at Pacific Northwest National Laboratory, a multiprogram
            national laboratory, operated for the U.S. Department of Energy
            by Battelle under Contract Number DE-AC05-76RL01830. Support
            for this work was provided by the Department of Energy Office
            of Biological and Environmental Research, Office of Basic
            Energy Sciences, and the Office of Advanced Scientific Computing.


           Job information
           ---------------

    hostname        = erato
    program         = ../../../bin/LINUX64/nwchem
    date            = Sat Mar  6 01:52:30 2021

    compiled        = Sat_Mar_06_01:07:04_2021
    source          = /home/hvandam/nwchem-1-wfn1
    nwchem branch   = Development
    nwchem revision = nwchem_on_git-124-gad72d19fff205e319ffbbf2bca37a04ded6ad57b
    ga revision     = nwchem_on_git-124-gad72d19
    use scalapack   = F
    input           = input-wf.nw
    prefix          = wfn1_dat.
    data base       = ./wfn1_dat.db
    status          = startup
    nproc           =        1
    time left       =     -1s



           Memory information
           ------------------

    heap     =   13107198 doubles =    100.0 Mbytes
    stack    =   13107195 doubles =    100.0 Mbytes
    global   =   26214400 doubles =    200.0 Mbytes (distinct from heap & stack)
    total    =   52428793 doubles =    400.0 Mbytes
    verify   = yes
    hardfail = no 


           Directory information
           ---------------------

  0 permanent = .
  0 scratch   = .




                                NWChem Input Module
                                -------------------


 Turning off AUTOSYM since
 SYMMETRY directive was detected!



                             Geometry "geometry" -> ""
                             -------------------------

 Output coordinates in a.u. (scale by  1.000000000 to convert to a.u.)

  No.       Tag          Charge          X              Y              Z
 ---- ---------------- ---------- -------------- -------------- --------------
    1 H                    1.0000     0.00000000     0.00000000    -5.59434600
    2 H                    1.0000     0.00000000     0.00000000     5.59434600

      Atomic Mass 
      ----------- 

      H                  1.007825


 Effective nuclear repulsion energy (a.u.)       0.0893759521

            Nuclear Dipole moment (a.u.) 
            ----------------------------
        X                 Y               Z
 ---------------- ---------------- ----------------
     0.0000000000     0.0000000000     0.0000000000

      Symmetry information
      --------------------

 Group name             Cs        
 Group number              2
 Group order               2
 No. of unique centers     1

      Symmetry unique atoms

     1


            XYZ format geometry
            -------------------
     2
 geometry
 H                     0.00000000     0.00000000    -2.96040063
 H                     0.00000000     0.00000000     2.96040063

                      Basis "ao basis" -> "" (cartesian)
                      -----
  H (Hydrogen)
  ------------
            Exponent  Coefficients 
       -------------- ---------------------------------------------------------
  1 S  1.87311370E+01  0.033495
  1 S  2.82539370E+00  0.234727
  1 S  6.40121700E-01  0.813757

  2 S  1.61277800E-01  1.000000



 Summary of "ao basis" -> "" (cartesian)
 ------------------------------------------------------------------------------
       Tag                 Description            Shells   Functions and Types
 ---------------- ------------------------------  ------  ---------------------
 H                           6-31g                   2        2   2s



                                NWChem WFN1 Module
                                ------------------



          No. of electrons :     2
           Alpha electrons :     2
            Beta electrons :     0
          Charge           :     0
          Spin multiplicity:     3

 HvD: wfn1_inpdft
 HvD: nquad_task =                     1
 HvD: iangquad   =                     0
 HvD: gridtype   = user      
 HvD: leb        =  T
 HvD: radgrid    = murakn    
 HvD: trunc_neigh=  T
 HvD: lssw       =  T
 HvD: whichssw   = erf1    
 HvD: mxnrad     =                     0
 HvD: mxnang     =                     0
 HVD: wfn1: movecs_in  = atomic                                                                                                                                                                                                                                                          
 HVD: wfn1: movecs_out = ./wfn1_dat.movecs                                                                                                                                                                                                                                               

      Superposition of Atomic Density Guess
      -------------------------------------

 Sum of atomic energies:          -0.99646508

      Non-variational initial energy
      ------------------------------

 Total energy =      -0.682110
 1-e energy   =      -1.175218
 2-e energy   =       0.403732
 HOMO         =      -0.191218
 LUMO         =      -0.191154

 iteration              energy           error
 ---------              ------           -----
         0         -0.98469734        0.080000
         1         -0.98683826        0.080000
         2         -0.98701949        0.080000
         3         -0.98790115        0.080000
         4         -0.98855180        0.080000
         5         -0.98867904        0.080000
         6         -0.98920173        0.080000
         7         -0.98964559        0.080000
         8         -0.99077015        0.080000
         9         -0.99098648        0.080000
        10         -0.99099245        0.080000
        11         -0.99173703        0.080000
        12         -0.99283421        0.080000
        13         -0.99399272        0.080000
        14         -0.99463942        0.080000
        15         -0.99499831        0.080000
        16         -0.99522007        0.080000
        17         -0.99533483        0.080000
        18         -0.99565859        0.080000
        19         -0.99582810        0.080000
        20         -0.99599076        0.080000
        21         -0.99608948        0.080000
        22         -0.99617093        0.080000
        23         -0.99618028        0.080000
        24         -0.99621366        0.080000
        25         -0.99625944        0.069893
        26         -0.99630694        0.064708
        27         -0.99635650        0.055470
        28         -0.99638355        0.047551
        29         -0.99638451        0.034276
        30         -0.99638712        0.034276
        31         -0.99641036        0.034276
        32         -0.99641568        0.029383
        33         -0.99642037        0.026176
        34         -0.99642124        0.026176
        35         -0.99642809        0.026176
        36         -0.99643207        0.026176
        37         -0.99644066        0.026176
        38         -0.99644311        0.026176
        39         -0.99644311        0.018869
        40         -0.99645289        0.018869
        41         -0.99645444        0.017808
        42         -0.99645527        0.015562
        43         -0.99645737        0.013341
        44         -0.99645891        0.013341
        45         -0.99646015        0.009617
        46         -0.99646119        0.009617
        47         -0.99646153        0.008404
        48         -0.99646208        0.008404
        49         -0.99646315        0.008404
        50         -0.99646404        0.008404
        51         -0.99646476        0.006175
        52         -0.99646508        0.005608
        53         -0.99646530        0.004043
        54         -0.99646539        0.004043
        55         -0.99646552        0.003466
        56         -0.99646559        0.003466
        57         -0.99646561        0.002547
        58         -0.99646562        0.002547
        59         -0.99646563        0.002547
        60         -0.99646566        0.002225
        61         -0.99646567        0.002225
        62         -0.99646569        0.002225
        63         -0.99646572        0.000991
        64         -0.99646573        0.000991
        65         -0.99646573        0.000991
        66         -0.99646573        0.000991
        67         -0.99646574        0.000991
        68         -0.99646575        0.000883
        69         -0.99646576        0.000883
        70         -0.99646577        0.000818
        71         -0.99646577        0.000818
        72         -0.99646578        0.000818
        73         -0.99646579        0.000818
        74         -0.99646579        0.000714
        75         -0.99646579        0.000714
        76         -0.99646581        0.000714
        77         -0.99646581        0.000714
        78         -0.99646582        0.000546
        79         -0.99646582        0.000417
        80         -0.99646582        0.000417
        81         -0.99646582        0.000300
        82         -0.99646582        0.000262
        83         -0.99646582        0.000225
        84         -0.99646582        0.000193
        85         -0.99646582        0.000193
        86         -0.99646582        0.000165
        87         -0.99646582        0.000122
        88         -0.99646582        0.000122
        89         -0.99646582        0.000104
        90         -0.99646582        0.000104
        91         -0.99646582        0.000104
        92         -0.99646582        0.000104
        93         -0.99646582        0.000077
        94         -0.99646582        0.000077
        95         -0.99646582        0.000070
        96         -0.99646582        0.000070
        97         -0.99646582        0.000051
        98         -0.99646582        0.000051
        99         -0.99646582        0.000038
       100         -0.99646582        0.000038
       101         -0.99646582        0.000028
       102         -0.99646582        0.000024
       103         -0.99646582        0.000024
       104         -0.99646582        0.000024
       105         -0.99646582        0.000021
       106         -0.99646582        0.000021
       107         -0.99646582        0.000021
       108         -0.99646582        0.000013
       109         -0.99646582        0.000010
       110         -0.99646582        0.000010
       111         -0.99646582        0.000010
       112         -0.99646582        0.000007
       113         -0.99646582        0.000004
       114         -0.99646582        0.000004
       115         -0.99646582        0.000004
       116         -0.99646582        0.000004
       117         -0.99646582        0.000003
       118         -0.99646582        0.000003
       119         -0.99646582        0.000003
       120         -0.99646582        0.000003
       121         -0.99646582        0.000003
       122         -0.99646582        0.000002
       123         -0.99646582        0.000002
       124         -0.99646582        0.000001
       125         -0.99646582        0.000001

 Reached Convergence

 WFN1                     :
 --------------------------
 Total WFN1 energy  =          -0.9964658225
 1-Electron energy  =          -1.1752177273
 2-Electron energy  =           0.0893759527
 Correlation energy =           0.0000000000
 DFT XC energy      =           0.0000000000
 Entropy energy     =           0.0000000000
 Nuclear energy     =           0.0893759521

 conventional Hartree-Fock:
 --------------------------
 Total SCF energy  =          -0.9964658225
 2-Electron energy =           0.0893759527

                WFN1 Final Natural orbital energies and occupations
                ---------------------------------------------------

              Alpha       Beta            Alpha       Beta  
            --------    --------        --------    --------
       1      0.0000      0.0000          1.0000      0.0000
       2      0.0000      0.0000          1.0000      0.0000
       3      0.0000      0.0000          0.0000      0.0000
       4      0.0000      0.0000          0.0000      0.0000

             WFN1 Final Correlation function energies and occupations
             --------------------------------------------------------

              Alpha       Beta            Alpha       Beta  
            --------    --------        --------    --------
       1      0.0000      0.0000          1.0000      0.0000
       2      0.0000      0.0000          1.0000      0.0000
       3      0.0000      0.0000          0.0000      0.0000
       4      0.0000      0.0000          0.0000      0.0000

                WFN1 Final alpha-alpha 2-matrix occupation numbers
                --------------------------------------------------


 global array: g_momo1[1:4,1:4],  handle: -990 

            1           2           3           4  
       ----------- ----------- ----------- -----------
   1       0.00000     1.00000     0.00000     0.00000
   2       1.00000     0.00000     0.00000     0.00000
   3       0.00000     0.00000    -0.00000     0.00000
   4       0.00000     0.00000     0.00000     0.00000

                 WFN1 Final beta-beta 2-matrix occupation numbers
                 ------------------------------------------------


 global array: g_momo2[1:4,1:4],  handle: -989 

            1           2           3           4  
       ----------- ----------- ----------- -----------
   1       0.00000     0.00000     0.00000     0.00000
   2       0.00000     0.00000     0.00000     0.00000
   3       0.00000     0.00000     0.00000     0.00000
   4       0.00000     0.00000     0.00000     0.00000

                  WFN1 Final alpha Correlation Function Analysis
                  ----------------------------------------------


 global array: Ca[1:4,1:4],  handle: -977 

                     1                       2                       3                       4  
       ----------------------- ----------------------- ----------------------- -----------------------
   1       0.04976,   -0.70092     0.05016,   -0.70973    -0.00000,   -0.00000     0.00000,    0.00000
   2       0.69057,   -0.17133    -0.68195,    0.16942    -0.00000,   -0.00000    -0.00000,    0.00000
   3       0.00000,   -0.00000    -0.00000,    0.00000     0.73849,    0.08876     0.66384,    0.07795
   4       0.00000,    0.00000    -0.00000,   -0.00000     0.09023,    0.66228    -0.10242,   -0.73672

                   WFN1 Final beta Correlation Function Analysis
                   ---------------------------------------------


 global array: Cb[1:4,1:4],  handle: -976 

                     1                       2                       3                       4  
       ----------------------- ----------------------- ----------------------- -----------------------
   1       0.06135,   -0.74148     0.05026,   -0.66331    -0.04599,    0.00462    -0.00012,    0.04249
   2       0.64270,   -0.16256    -0.72237,    0.18668    -0.01530,   -0.05895    -0.00984,   -0.00620
   3       0.03920,   -0.04670     0.01750,    0.01918     0.65797,    0.09720     0.73549,    0.11086
   4       0.04931,   -0.02851    -0.00744,   -0.00973     0.12418,    0.73237    -0.11280,   -0.65734

                     WFN1 Final Alpha Natural Orbital Analysis
                     -----------------------------------------

 Vector    1  Occ=1.000000D+00  E= 0.000000D+00
              MO Center=  0.0D+00,  0.0D+00, -6.3D-02, r^2= 9.6D+00
   Bfn.  Coefficient  Atom+Function         Bfn.  Coefficient  Atom+Function  
  ----- ------------  ---------------      ----- ------------  ---------------
     2     -0.475504  1 H  s                  4     -0.465564  2 H  s          
     1     -0.305390  1 H  s                  3     -0.299003  2 H  s          

 Vector    2  Occ=1.000000D+00  E= 0.000000D+00
              MO Center=  0.0D+00,  0.0D+00,  6.3D-02, r^2= 9.6D+00
   Bfn.  Coefficient  Atom+Function         Bfn.  Coefficient  Atom+Function  
  ----- ------------  ---------------      ----- ------------  ---------------
     4     -0.475472  2 H  s                  2      0.465530  1 H  s          
     3     -0.305440  2 H  s                  1      0.299055  1 H  s          

 Vector    3  Occ=1.203583D-14  E= 0.000000D+00
              MO Center=  0.0D+00,  0.0D+00,  2.1D-01, r^2= 9.9D+00
   Bfn.  Coefficient  Atom+Function         Bfn.  Coefficient  Atom+Function  
  ----- ------------  ---------------      ----- ------------  ---------------
     3     -0.920287  2 H  s                  1     -0.857382  1 H  s          
     4      0.841192  2 H  s                  2      0.783688  1 H  s          

 Vector    4  Occ=1.147993D-14  E= 0.000000D+00
              MO Center=  0.0D+00,  0.0D+00, -2.1D-01, r^2= 9.9D+00
   Bfn.  Coefficient  Atom+Function         Bfn.  Coefficient  Atom+Function  
  ----- ------------  ---------------      ----- ------------  ---------------
     1     -0.920300  1 H  s                  3      0.857396  2 H  s          
     2      0.841287  1 H  s                  4     -0.783789  2 H  s          


                     WFN1 Final Beta Natural Orbital Analysis
                     ----------------------------------------

 Vector    1  Occ=0.000000D+00  E= 0.000000D+00
              MO Center=  0.0D+00,  0.0D+00,  3.9D-02, r^2= 9.6D+00
   Bfn.  Coefficient  Atom+Function         Bfn.  Coefficient  Atom+Function  
  ----- ------------  ---------------      ----- ------------  ---------------
     2     -0.491493  1 H  s                  4     -0.491652  2 H  s          
     3     -0.284276  2 H  s                  1     -0.273571  1 H  s          

 Vector    2  Occ=0.000000D+00  E= 0.000000D+00
              MO Center=  0.0D+00,  0.0D+00, -4.8D-02, r^2= 9.7D+00
   Bfn.  Coefficient  Atom+Function         Bfn.  Coefficient  Atom+Function  
  ----- ------------  ---------------      ----- ------------  ---------------
     2      0.573855  1 H  s                  4     -0.527347  2 H  s          
     3     -0.231041  2 H  s                  1      0.189277  1 H  s          

 Vector    3  Occ=0.000000D+00  E= 0.000000D+00
              MO Center=  0.0D+00,  0.0D+00, -1.2D-01, r^2= 9.9D+00
   Bfn.  Coefficient  Atom+Function         Bfn.  Coefficient  Atom+Function  
  ----- ------------  ---------------      ----- ------------  ---------------
     1     -0.921995  1 H  s                  3     -0.871071  2 H  s          
     2      0.802705  1 H  s                  4      0.796965  2 H  s          

 Vector    4  Occ=0.000000D+00  E= 0.000000D+00
              MO Center=  0.0D+00,  0.0D+00,  1.3D-01, r^2= 9.8D+00
   Bfn.  Coefficient  Atom+Function         Bfn.  Coefficient  Atom+Function  
  ----- ------------  ---------------      ----- ------------  ---------------
     3      0.933700  2 H  s                  1     -0.896667  1 H  s          
     4     -0.780886  2 H  s                  2      0.741311  1 H  s          


 Task  times  cpu:       12.6s     wall:       19.6s
 Summary of allocated global arrays
-----------------------------------
  No active global arrays



                         GA Statistics for process    0
                         ------------------------------

       create   destroy   get      put      acc     scatter   gather  read&inc
calls:   44       44     7.91e+06 2.74e+04 2.17e+04    0        0       10     
number of processes/call 1.00e+00 1.00e+00 1.00e+00 0.00e+00 0.00e+00
bytes total:             1.02e+09 4.84e+06 3.46e+06 0.00e+00 0.00e+00 8.00e+01
bytes remote:            0.00e+00 0.00e+00 0.00e+00 0.00e+00 0.00e+00 0.00e+00
Max memory consumed for GA by this process: 10624 bytes
MA_summarize_allocated_blocks: starting scan ...
MA_summarize_allocated_blocks: scan completed: 0 heap blocks, 0 stack blocks
MA usage statistics:

	allocation statistics:
					      heap	     stack
					      ----	     -----
	current number of blocks	         0	         0
	maximum number of blocks	        19	        17
	current total bytes		         0	         0
	maximum total bytes		   3204344	  22508664
	maximum total K-bytes		      3205	     22509
	maximum total M-bytes		         4	        23


                                NWChem Input Module
                                -------------------





                                     CITATION
                                     --------
                Please cite the following reference when publishing
                           results obtained with NWChem:

                 M. Valiev, E.J. Bylaska, N. Govind, K. Kowalski,
              T.P. Straatsma, H.J.J. van Dam, D. Wang, J. Nieplocha,
                        E. Apra, T.L. Windus, W.A. de Jong
                 "NWChem: a comprehensive and scalable open-source
                  solution for large scale molecular simulations"
                      Comput. Phys. Commun. 181, 1477 (2010)
                           doi:10.1016/j.cpc.2010.04.018

                                      AUTHORS
                                      -------
          E. Apra, E. J. Bylaska, W. A. de Jong, N. Govind, K. Kowalski,
       T. P. Straatsma, M. Valiev, H. J. J. van Dam, D. Wang, T. L. Windus,
        J. Hammond, J. Autschbach, K. Bhaskaran-Nair, J. Brabec, K. Lopata,
    S. A. Fischer, S. Krishnamoorthy, M. Jacquelin, W. Ma, M. Klemm, O. Villa,
      Y. Chen, V. Anisimov, F. Aquino, S. Hirata, M. T. Hackler, V. Konjkov,
      T. Risthaus, M. Malagoli, A. Marenich, A. Otero-de-la-Roza, J. Mullin,
        P. Nichols, R. Peverati, J. Pittner, Y. Zhao, P.-D. Fan, A. Fonari,
       M. Williamson, R. J. Harrison, J. R. Rehr, M. Dupuis, D. Silverstein,
    D. M. A. Smith, J. Nieplocha, V. Tipparaju, M. Krishnan, B. E. Van Kuiken,
        A. Vazquez-Mayagoitia, L. Jensen, M. Swart, Q. Wu, T. Van Voorhis,
     A. A. Auer, M. Nooijen, L. D. Crosby, E. Brown, G. Cisneros, G. I. Fann,
   H. Fruchtl, J. Garza, K. Hirao, R. A. Kendall, J. A. Nichols, K. Tsemekhman,
    K. Wolinski, J. Anchell, D. E. Bernholdt, P. Borowski, T. Clark, D. Clerc,
   H. Dachsel, M. J. O. Deegan, K. Dyall, D. Elwood, E. Glendening, M. Gutowski,
   A. C. Hess, J. Jaffe, B. G. Johnson, J. Ju, R. Kobayashi, R. Kutteh, Z. Lin,
   R. Littlefield, X. Long, B. Meng, T. Nakajima, S. Niu, L. Pollack, M. Rosing,
   K. Glaesemann, G. Sandrone, M. Stave, H. Taylor, G. Thomas, J. H. van Lenthe,
                               A. T. Wong, Z. Zhang.

 Total times  cpu:       12.6s     wall:       19.6s
