 argument  1 = input-wf.nw



============================== echo of input deck ==============================
echo
start wfn1_dat
geometry units au noautoz
  H 0 0 -1.34434600000000000000
  H 0 0  1.34434600000000000000
  symmetry cs
end
basis
  H library 6-31g
end
set wfn1:input_vectors "atomic"
set wfn1:solver "monte-carlo"
set wfn1:print_error F
set wfn1:t_initial 0.1
set wfn1:nopen 2
#set wfn1:corr_expr "wfn1_mx"
set wfn1:corr_expr "wfn1c"
set wfn1:t_bath 0.0
set wfn1:maxit  20000
task wfn1 energy
================================================================================


                                         
                                         


              Northwest Computational Chemistry Package (NWChem) 6.8
              ------------------------------------------------------


                    Environmental Molecular Sciences Laboratory
                       Pacific Northwest National Laboratory
                                Richland, WA 99352

                              Copyright (c) 1994-2015
                       Pacific Northwest National Laboratory
                            Battelle Memorial Institute

             NWChem is an open-source computational chemistry package
                        distributed under the terms of the
                      Educational Community License (ECL) 2.0
             A copy of the license is included with this distribution
                              in the LICENSE.TXT file

                                  ACKNOWLEDGMENT
                                  --------------

            This software and its documentation were developed at the
            EMSL at Pacific Northwest National Laboratory, a multiprogram
            national laboratory, operated for the U.S. Department of Energy
            by Battelle under Contract Number DE-AC05-76RL01830. Support
            for this work was provided by the Department of Energy Office
            of Biological and Environmental Research, Office of Basic
            Energy Sciences, and the Office of Advanced Scientific Computing.


           Job information
           ---------------

    hostname        = erato
    program         = ../../../bin/LINUX64/nwchem
    date            = Sat Mar  6 01:22:11 2021

    compiled        = Sat_Mar_06_01:07:04_2021
    source          = /home/hvandam/nwchem-1-wfn1
    nwchem branch   = Development
    nwchem revision = nwchem_on_git-124-gad72d19fff205e319ffbbf2bca37a04ded6ad57b
    ga revision     = nwchem_on_git-124-gad72d19
    use scalapack   = F
    input           = input-wf.nw
    prefix          = wfn1_dat.
    data base       = ./wfn1_dat.db
    status          = startup
    nproc           =        1
    time left       =     -1s



           Memory information
           ------------------

    heap     =   13107200 doubles =    100.0 Mbytes
    stack    =   13107197 doubles =    100.0 Mbytes
    global   =   26214400 doubles =    200.0 Mbytes (distinct from heap & stack)
    total    =   52428797 doubles =    400.0 Mbytes
    verify   = yes
    hardfail = no 


           Directory information
           ---------------------

  0 permanent = .
  0 scratch   = .




                                NWChem Input Module
                                -------------------


 Turning off AUTOSYM since
 SYMMETRY directive was detected!



                             Geometry "geometry" -> ""
                             -------------------------

 Output coordinates in a.u. (scale by  1.000000000 to convert to a.u.)

  No.       Tag          Charge          X              Y              Z
 ---- ---------------- ---------- -------------- -------------- --------------
    1 H                    1.0000     0.00000000     0.00000000    -1.34434600
    2 H                    1.0000     0.00000000     0.00000000     1.34434600

      Atomic Mass 
      ----------- 

      H                  1.007825


 Effective nuclear repulsion energy (a.u.)       0.3719280602

            Nuclear Dipole moment (a.u.) 
            ----------------------------
        X                 Y               Z
 ---------------- ---------------- ----------------
     0.0000000000     0.0000000000     0.0000000000

      Symmetry information
      --------------------

 Group name             Cs        
 Group number              2
 Group order               2
 No. of unique centers     1

      Symmetry unique atoms

     1


            XYZ format geometry
            -------------------
     2
 geometry
 H                     0.00000000     0.00000000    -0.71139732
 H                     0.00000000     0.00000000     0.71139732

                      Basis "ao basis" -> "" (cartesian)
                      -----
  H (Hydrogen)
  ------------
            Exponent  Coefficients 
       -------------- ---------------------------------------------------------
  1 S  1.87311370E+01  0.033495
  1 S  2.82539370E+00  0.234727
  1 S  6.40121700E-01  0.813757

  2 S  1.61277800E-01  1.000000



 Summary of "ao basis" -> "" (cartesian)
 ------------------------------------------------------------------------------
       Tag                 Description            Shells   Functions and Types
 ---------------- ------------------------------  ------  ---------------------
 H                           6-31g                   2        2   2s



                                NWChem WFN1 Module
                                ------------------



          No. of electrons :     2
           Alpha electrons :     2
            Beta electrons :     0
          Charge           :     0
          Spin multiplicity:     3

 HvD: wfn1_inpdft
 HvD: nquad_task =                     1
 HvD: iangquad   =                     0
 HvD: gridtype   = user      
 HvD: leb        =  T
 HvD: radgrid    = murakn    
 HvD: trunc_neigh=  T
 HvD: lssw       =  T
 HvD: whichssw   = erf1    
 HvD: mxnrad     =                     0
 HvD: mxnang     =                     0
 HVD: wfn1: movecs_in  = atomic                                                                                                                                                                                                                                                          
 HVD: wfn1: movecs_out = ./wfn1_dat.movecs                                                                                                                                                                                                                                               

      Superposition of Atomic Density Guess
      -------------------------------------

 Sum of atomic energies:          -0.99646508

      Non-variational initial energy
      ------------------------------

 Total energy =      -0.735265
 1-e energy   =      -1.730008
 2-e energy   =       0.622815
 HOMO         =      -0.353707
 LUMO         =      -0.010090

 iteration              energy           error
 ---------              ------           -----
         0         -0.93496584        0.080000
         1         -0.93736648        0.080000
         2         -0.93879600        0.080000
         3         -0.93921979        0.080000
         4         -0.94012576        0.080000
         5         -0.94068952        0.080000
         6         -0.94101273        0.080000
         7         -0.94135148        0.080000
         8         -0.94161544        0.080000
         9         -0.94221312        0.080000
        10         -0.94284779        0.080000
        11         -0.94297749        0.080000
        12         -0.94381818        0.080000
        13         -0.94425458        0.080000
        14         -0.94559405        0.080000
        15         -0.94624312        0.080000
        16         -0.94644410        0.080000
        17         -0.94762306        0.080000
        18         -0.94773293        0.080000
        19         -0.94788464        0.080000
        20         -0.94821871        0.080000
        21         -0.94846179        0.080000
        22         -0.94855864        0.080000
        23         -0.94872343        0.080000
        24         -0.94881499        0.080000
        25         -0.94886395        0.080000
        26         -0.94889193        0.080000
        27         -0.94894390        0.080000
        28         -0.94894738        0.076951
        29         -0.94914922        0.076951
        30         -0.94923159        0.076951
        31         -0.94934999        0.076951
        32         -0.94940998        0.076951
        33         -0.94943235        0.068553
        34         -0.94944144        0.068553
        35         -0.94944841        0.053369
        36         -0.94949833        0.053369
        37         -0.94950298        0.046639
        38         -0.94950845        0.028819
        39         -0.94951996        0.028819
        40         -0.94952260        0.024705
        41         -0.94953022        0.024705
        42         -0.94953164        0.024705
        43         -0.94954521        0.024705
        44         -0.94954831        0.021589
        45         -0.94954952        0.021589
        46         -0.94955066        0.016487
        47         -0.94955071        0.016487
        48         -0.94955089        0.016487
        49         -0.94955114        0.012116
        50         -0.94955435        0.012116
        51         -0.94955476        0.012116
        52         -0.94955549        0.010793
        53         -0.94955787        0.010793
        54         -0.94955826        0.009615
        55         -0.94955827        0.007066
        56         -0.94955928        0.007066
        57         -0.94955952        0.007066
        58         -0.94956046        0.006057
        59         -0.94956097        0.005396
        60         -0.94956174        0.005396
        61         -0.94956194        0.004626
        62         -0.94956208        0.004042
        63         -0.94956214        0.004042
        64         -0.94956217        0.003465
        65         -0.94956224        0.003465
        66         -0.94956231        0.003465
        67         -0.94956234        0.003465
        68         -0.94956237        0.003465
        69         -0.94956241        0.003465
        70         -0.94956241        0.002141
        71         -0.94956253        0.002141
        72         -0.94956261        0.002141
        73         -0.94956267        0.002021
        74         -0.94956268        0.002021
        75         -0.94956268        0.002021
        76         -0.94956272        0.002021
        77         -0.94956279        0.001800
        78         -0.94956279        0.001635
        79         -0.94956280        0.001402
        80         -0.94956283        0.001201
        81         -0.94956284        0.001030
        82         -0.94956285        0.001030
        83         -0.94956285        0.000883
        84         -0.94956285        0.000883
        85         -0.94956286        0.000772
        86         -0.94956287        0.000567
        87         -0.94956288        0.000567
        88         -0.94956288        0.000486
        89         -0.94956289        0.000486
        90         -0.94956289        0.000425
        91         -0.94956289        0.000425
        92         -0.94956289        0.000262
        93         -0.94956289        0.000229
        94         -0.94956289        0.000229
        95         -0.94956289        0.000229
        96         -0.94956289        0.000197
        97         -0.94956289        0.000197
        98         -0.94956289        0.000197
        99         -0.94956289        0.000175
       100         -0.94956289        0.000175
       101         -0.94956289        0.000131
       102         -0.94956289        0.000115
       103         -0.94956289        0.000098
       104         -0.94956289        0.000084
       105         -0.94956289        0.000072
       106         -0.94956289        0.000052
       107         -0.94956289        0.000052
       108         -0.94956289        0.000045
       109         -0.94956289        0.000033
       110         -0.94956289        0.000028
       111         -0.94956289        0.000028
       112         -0.94956289        0.000024
       113         -0.94956289        0.000024
       114         -0.94956289        0.000024
       115         -0.94956289        0.000024
       116         -0.94956289        0.000021
       117         -0.94956289        0.000019
       118         -0.94956289        0.000014
       119         -0.94956289        0.000014
       120         -0.94956289        0.000014
       121         -0.94956289        0.000012
       122         -0.94956289        0.000012
       123         -0.94956289        0.000011
       124         -0.94956289        0.000011
       125         -0.94956289        0.000011
       126         -0.94956289        0.000011
       127         -0.94956289        0.000011
       128         -0.94956289        0.000009
       129         -0.94956289        0.000009
       130         -0.94956289        0.000009
       131         -0.94956289        0.000009
       132         -0.94956289        0.000009
       133         -0.94956289        0.000007
       134         -0.94956289        0.000005
       135         -0.94956289        0.000004
       136         -0.94956289        0.000003
       137         -0.94956289        0.000003
       138         -0.94956289        0.000003
       139         -0.94956289        0.000002
       140         -0.94956289        0.000002
       141         -0.94956289        0.000002
       142         -0.94956289        0.000002
       143         -0.94956289        0.000001
       144         -0.94956289        0.000001
       145         -0.94956289        0.000001
       146         -0.94956289        0.000001
       147         -0.94956289        0.000001
       148         -0.94956289        0.000001

 Reached Convergence

 WFN1                     :
 --------------------------
 Total WFN1 energy  =          -0.9495628919
 1-Electron energy  =          -1.6338783122
 2-Electron energy  =           0.3123873601
 Correlation energy =           0.0000000000
 DFT XC energy      =           0.0000000000
 Entropy energy     =           0.0000000000
 Nuclear energy     =           0.3719280602

 conventional Hartree-Fock:
 --------------------------
 Total SCF energy  =          -0.9495628919
 2-Electron energy =           0.3123873601

                WFN1 Final Natural orbital energies and occupations
                ---------------------------------------------------

              Alpha       Beta            Alpha       Beta  
            --------    --------        --------    --------
       1      0.0000      0.0000          1.0000      0.0000
       2      0.0000      0.0000          1.0000      0.0000
       3      0.0000      0.0000          0.0000      0.0000
       4      0.0000      0.0000          0.0000      0.0000

             WFN1 Final Correlation function energies and occupations
             --------------------------------------------------------

              Alpha       Beta            Alpha       Beta  
            --------    --------        --------    --------
       1      0.0000      0.0000          1.0000      0.0000
       2      0.0000      0.0000          1.0000      0.0000
       3      0.0000      0.0000          0.0000      0.0000
       4      0.0000      0.0000          0.0000      0.0000

                WFN1 Final alpha-alpha 2-matrix occupation numbers
                --------------------------------------------------


 global array: g_momo1[1:4,1:4],  handle: -990 

            1           2           3           4  
       ----------- ----------- ----------- -----------
   1       0.00000     1.00000     0.00000     0.00000
   2       1.00000     0.00000     0.00000     0.00000
   3       0.00000     0.00000     0.00000     0.00000
   4       0.00000     0.00000     0.00000     0.00000

                 WFN1 Final beta-beta 2-matrix occupation numbers
                 ------------------------------------------------


 global array: g_momo2[1:4,1:4],  handle: -989 

            1           2           3           4  
       ----------- ----------- ----------- -----------
   1       0.00000     0.00000     0.00000     0.00000
   2       0.00000     0.00000     0.00000     0.00000
   3       0.00000     0.00000     0.00000     0.00000
   4       0.00000     0.00000     0.00000     0.00000

                  WFN1 Final alpha Correlation Function Analysis
                  ----------------------------------------------


 global array: Ca[1:4,1:4],  handle: -981 

                     1                       2                       3                       4  
       ----------------------- ----------------------- ----------------------- -----------------------
   1      -0.45224,    0.87444     0.05744,   -0.16597    -0.00000,   -0.00000    -0.00000,    0.00000
   2      -0.04995,    0.16837    -0.14158,    0.97422    -0.00000,   -0.00000    -0.00000,    0.00000
   3       0.00000,    0.00000     0.00000,   -0.00000    -0.11239,   -0.73380    -0.09657,   -0.66301
   4      -0.00000,    0.00000    -0.00000,    0.00000    -0.39058,    0.54439     0.43718,   -0.59997

                   WFN1 Final beta Correlation Function Analysis
                   ---------------------------------------------


 global array: Cb[1:4,1:4],  handle: -980 

                     1                       2                       3                       4  
       ----------------------- ----------------------- ----------------------- -----------------------
   1      -0.45311,    0.86944     0.10228,   -0.14782    -0.05072,    0.02140     0.03758,    0.04475
   2      -0.00954,    0.17962    -0.13854,    0.97061     0.03612,    0.03489     0.02200,   -0.05796
   3      -0.00362,    0.04669    -0.04176,   -0.01385    -0.14559,   -0.78286    -0.11143,   -0.59109
   4      -0.03673,   -0.05347     0.05766,   -0.03387    -0.37260,    0.47069     0.48366,   -0.63008

                     WFN1 Final Alpha Natural Orbital Analysis
                     -----------------------------------------

 Vector    1  Occ=1.000000D+00  E= 0.000000D+00
              MO Center=  0.0D+00,  0.0D+00,  4.9D-02, r^2= 1.2D+00
   Bfn.  Coefficient  Atom+Function         Bfn.  Coefficient  Atom+Function  
  ----- ------------  ---------------      ----- ------------  ---------------
     4     -0.380499  2 H  s                  2     -0.337452  1 H  s          
     3     -0.314457  2 H  s                  1     -0.294164  1 H  s          

 Vector    2  Occ=1.000000D+00  E= 0.000000D+00
              MO Center=  0.0D+00,  0.0D+00, -4.9D-02, r^2= 1.6D+00
   Bfn.  Coefficient  Atom+Function         Bfn.  Coefficient  Atom+Function  
  ----- ------------  ---------------      ----- ------------  ---------------
     2     -0.707978  1 H  s                  4      0.685804  2 H  s          
     1     -0.337935  1 H  s                  3      0.319138  2 H  s          

 Vector    3  Occ=1.382406D-14  E= 0.000000D+00
              MO Center=  0.0D+00,  0.0D+00, -1.9D-02, r^2= 2.2D+00
   Bfn.  Coefficient  Atom+Function         Bfn.  Coefficient  Atom+Function  
  ----- ------------  ---------------      ----- ------------  ---------------
     2      1.187178  1 H  s                  4     -1.171605  2 H  s          
     1     -0.896038  1 H  s                  3      0.876099  2 H  s          

 Vector    4  Occ=1.002992D-14  E= 0.000000D+00
              MO Center=  0.0D+00,  0.0D+00,  1.9D-02, r^2= 1.7D+00
   Bfn.  Coefficient  Atom+Function         Bfn.  Coefficient  Atom+Function  
  ----- ------------  ---------------      ----- ------------  ---------------
     3     -0.925590  2 H  s                  1     -0.906301  1 H  s          
     4      0.728188  2 H  s                  2      0.702513  1 H  s          


                     WFN1 Final Beta Natural Orbital Analysis
                     ----------------------------------------

 Vector    1  Occ=0.000000D+00  E= 0.000000D+00
              MO Center=  0.0D+00,  0.0D+00, -5.1D-02, r^2= 1.2D+00
   Bfn.  Coefficient  Atom+Function         Bfn.  Coefficient  Atom+Function  
  ----- ------------  ---------------      ----- ------------  ---------------
     4     -0.370917  2 H  s                  2     -0.360190  1 H  s          
     1     -0.330114  1 H  s                  3     -0.260829  2 H  s          

 Vector    2  Occ=0.000000D+00  E= 0.000000D+00
              MO Center=  0.0D+00,  0.0D+00,  4.7D-02, r^2= 1.9D+00
   Bfn.  Coefficient  Atom+Function         Bfn.  Coefficient  Atom+Function  
  ----- ------------  ---------------      ----- ------------  ---------------
     4      0.834598  2 H  s                  2     -0.829778  1 H  s          
     3      0.242629  2 H  s                  1     -0.198781  1 H  s          

 Vector    3  Occ=0.000000D+00  E= 0.000000D+00
              MO Center=  0.0D+00,  0.0D+00, -7.2D-02, r^2= 1.9D+00
   Bfn.  Coefficient  Atom+Function         Bfn.  Coefficient  Atom+Function  
  ----- ------------  ---------------      ----- ------------  ---------------
     2      1.128168  1 H  s                  4     -1.045657  2 H  s          
     1     -0.947946  1 H  s                  3      0.887297  2 H  s          

 Vector    4  Occ=0.000000D+00  E= 0.000000D+00
              MO Center=  0.0D+00,  0.0D+00,  7.6D-02, r^2= 1.7D+00
   Bfn.  Coefficient  Atom+Function         Bfn.  Coefficient  Atom+Function  
  ----- ------------  ---------------      ----- ------------  ---------------
     3     -0.954360  2 H  s                  1     -0.881991  1 H  s          
     4      0.768435  2 H  s                  2      0.653446  1 H  s          


 Task  times  cpu:       14.7s     wall:       21.7s
 Summary of allocated global arrays
-----------------------------------
  No active global arrays



                         GA Statistics for process    0
                         ------------------------------

       create   destroy   get      put      acc     scatter   gather  read&inc
calls:   44       44     8.19e+06 2.83e+04 2.24e+04    0        0       11     
number of processes/call 1.00e+00 1.00e+00 1.00e+00 0.00e+00 0.00e+00
bytes total:             1.05e+09 5.01e+06 3.58e+06 0.00e+00 0.00e+00 8.80e+01
bytes remote:            0.00e+00 0.00e+00 0.00e+00 0.00e+00 0.00e+00 0.00e+00
Max memory consumed for GA by this process: 10624 bytes
MA_summarize_allocated_blocks: starting scan ...
MA_summarize_allocated_blocks: scan completed: 0 heap blocks, 0 stack blocks
MA usage statistics:

	allocation statistics:
					      heap	     stack
					      ----	     -----
	current number of blocks	         0	         0
	maximum number of blocks	        19	        17
	current total bytes		         0	         0
	maximum total bytes		   3204328	  22508616
	maximum total K-bytes		      3205	     22509
	maximum total M-bytes		         4	        23


                                NWChem Input Module
                                -------------------





                                     CITATION
                                     --------
                Please cite the following reference when publishing
                           results obtained with NWChem:

                 M. Valiev, E.J. Bylaska, N. Govind, K. Kowalski,
              T.P. Straatsma, H.J.J. van Dam, D. Wang, J. Nieplocha,
                        E. Apra, T.L. Windus, W.A. de Jong
                 "NWChem: a comprehensive and scalable open-source
                  solution for large scale molecular simulations"
                      Comput. Phys. Commun. 181, 1477 (2010)
                           doi:10.1016/j.cpc.2010.04.018

                                      AUTHORS
                                      -------
          E. Apra, E. J. Bylaska, W. A. de Jong, N. Govind, K. Kowalski,
       T. P. Straatsma, M. Valiev, H. J. J. van Dam, D. Wang, T. L. Windus,
        J. Hammond, J. Autschbach, K. Bhaskaran-Nair, J. Brabec, K. Lopata,
    S. A. Fischer, S. Krishnamoorthy, M. Jacquelin, W. Ma, M. Klemm, O. Villa,
      Y. Chen, V. Anisimov, F. Aquino, S. Hirata, M. T. Hackler, V. Konjkov,
      T. Risthaus, M. Malagoli, A. Marenich, A. Otero-de-la-Roza, J. Mullin,
        P. Nichols, R. Peverati, J. Pittner, Y. Zhao, P.-D. Fan, A. Fonari,
       M. Williamson, R. J. Harrison, J. R. Rehr, M. Dupuis, D. Silverstein,
    D. M. A. Smith, J. Nieplocha, V. Tipparaju, M. Krishnan, B. E. Van Kuiken,
        A. Vazquez-Mayagoitia, L. Jensen, M. Swart, Q. Wu, T. Van Voorhis,
     A. A. Auer, M. Nooijen, L. D. Crosby, E. Brown, G. Cisneros, G. I. Fann,
   H. Fruchtl, J. Garza, K. Hirao, R. A. Kendall, J. A. Nichols, K. Tsemekhman,
    K. Wolinski, J. Anchell, D. E. Bernholdt, P. Borowski, T. Clark, D. Clerc,
   H. Dachsel, M. J. O. Deegan, K. Dyall, D. Elwood, E. Glendening, M. Gutowski,
   A. C. Hess, J. Jaffe, B. G. Johnson, J. Ju, R. Kobayashi, R. Kutteh, Z. Lin,
   R. Littlefield, X. Long, B. Meng, T. Nakajima, S. Niu, L. Pollack, M. Rosing,
   K. Glaesemann, G. Sandrone, M. Stave, H. Taylor, G. Thomas, J. H. van Lenthe,
                               A. T. Wong, Z. Zhang.

 Total times  cpu:       14.7s     wall:       21.7s
