 argument  1 = input-wf.nw



============================== echo of input deck ==============================
echo
start wfn1_dat
geometry units au noautoz
  H 0 0 -3.89434600000000000000
  H 0 0  3.89434600000000000000
  symmetry cs
end
basis
  H library 6-31g
end
set wfn1:input_vectors "atomic"
set wfn1:solver "monte-carlo"
set wfn1:print_error F
set wfn1:t_initial 0.1
set wfn1:nopen 2
#set wfn1:corr_expr "wfn1_mx"
set wfn1:corr_expr "wfn1c"
set wfn1:t_bath 0.0
set wfn1:maxit  20000
task wfn1 energy
================================================================================


                                         
                                         


              Northwest Computational Chemistry Package (NWChem) 6.8
              ------------------------------------------------------


                    Environmental Molecular Sciences Laboratory
                       Pacific Northwest National Laboratory
                                Richland, WA 99352

                              Copyright (c) 1994-2015
                       Pacific Northwest National Laboratory
                            Battelle Memorial Institute

             NWChem is an open-source computational chemistry package
                        distributed under the terms of the
                      Educational Community License (ECL) 2.0
             A copy of the license is included with this distribution
                              in the LICENSE.TXT file

                                  ACKNOWLEDGMENT
                                  --------------

            This software and its documentation were developed at the
            EMSL at Pacific Northwest National Laboratory, a multiprogram
            national laboratory, operated for the U.S. Department of Energy
            by Battelle under Contract Number DE-AC05-76RL01830. Support
            for this work was provided by the Department of Energy Office
            of Biological and Environmental Research, Office of Basic
            Energy Sciences, and the Office of Advanced Scientific Computing.


           Job information
           ---------------

    hostname        = erato
    program         = ../../../bin/LINUX64/nwchem
    date            = Sat Mar  6 01:40:44 2021

    compiled        = Sat_Mar_06_01:07:04_2021
    source          = /home/hvandam/nwchem-1-wfn1
    nwchem branch   = Development
    nwchem revision = nwchem_on_git-124-gad72d19fff205e319ffbbf2bca37a04ded6ad57b
    ga revision     = nwchem_on_git-124-gad72d19
    use scalapack   = F
    input           = input-wf.nw
    prefix          = wfn1_dat.
    data base       = ./wfn1_dat.db
    status          = startup
    nproc           =        1
    time left       =     -1s



           Memory information
           ------------------

    heap     =   13107196 doubles =    100.0 Mbytes
    stack    =   13107201 doubles =    100.0 Mbytes
    global   =   26214400 doubles =    200.0 Mbytes (distinct from heap & stack)
    total    =   52428797 doubles =    400.0 Mbytes
    verify   = yes
    hardfail = no 


           Directory information
           ---------------------

  0 permanent = .
  0 scratch   = .




                                NWChem Input Module
                                -------------------


 Turning off AUTOSYM since
 SYMMETRY directive was detected!



                             Geometry "geometry" -> ""
                             -------------------------

 Output coordinates in a.u. (scale by  1.000000000 to convert to a.u.)

  No.       Tag          Charge          X              Y              Z
 ---- ---------------- ---------- -------------- -------------- --------------
    1 H                    1.0000     0.00000000     0.00000000    -3.89434600
    2 H                    1.0000     0.00000000     0.00000000     3.89434600

      Atomic Mass 
      ----------- 

      H                  1.007825


 Effective nuclear repulsion energy (a.u.)       0.1283912626

            Nuclear Dipole moment (a.u.) 
            ----------------------------
        X                 Y               Z
 ---------------- ---------------- ----------------
     0.0000000000     0.0000000000     0.0000000000

      Symmetry information
      --------------------

 Group name             Cs        
 Group number              2
 Group order               2
 No. of unique centers     1

      Symmetry unique atoms

     1


            XYZ format geometry
            -------------------
     2
 geometry
 H                     0.00000000     0.00000000    -2.06079930
 H                     0.00000000     0.00000000     2.06079930

                      Basis "ao basis" -> "" (cartesian)
                      -----
  H (Hydrogen)
  ------------
            Exponent  Coefficients 
       -------------- ---------------------------------------------------------
  1 S  1.87311370E+01  0.033495
  1 S  2.82539370E+00  0.234727
  1 S  6.40121700E-01  0.813757

  2 S  1.61277800E-01  1.000000



 Summary of "ao basis" -> "" (cartesian)
 ------------------------------------------------------------------------------
       Tag                 Description            Shells   Functions and Types
 ---------------- ------------------------------  ------  ---------------------
 H                           6-31g                   2        2   2s



                                NWChem WFN1 Module
                                ------------------



          No. of electrons :     2
           Alpha electrons :     2
            Beta electrons :     0
          Charge           :     0
          Spin multiplicity:     3

 HvD: wfn1_inpdft
 HvD: nquad_task =                     1
 HvD: iangquad   =                     0
 HvD: gridtype   = user      
 HvD: leb        =  T
 HvD: radgrid    = murakn    
 HvD: trunc_neigh=  T
 HvD: lssw       =  T
 HvD: whichssw   = erf1    
 HvD: mxnrad     =                     0
 HvD: mxnang     =                     0
 HVD: wfn1: movecs_in  = atomic                                                                                                                                                                                                                                                          
 HVD: wfn1: movecs_out = ./wfn1_dat.movecs                                                                                                                                                                                                                                               

      Superposition of Atomic Density Guess
      -------------------------------------

 Sum of atomic energies:          -0.99646508

      Non-variational initial energy
      ------------------------------

 Total energy =      -0.682113
 1-e energy   =      -1.253248
 2-e energy   =       0.442744
 HOMO         =      -0.193915
 LUMO         =      -0.188452

 iteration              energy           error
 ---------              ------           -----
         0         -0.98469439        0.080000
         1         -0.98479392        0.080000
         2         -0.98490441        0.080000
         3         -0.98633310        0.080000
         4         -0.98701606        0.080000
         5         -0.98725008        0.080000
         6         -0.98788534        0.080000
         7         -0.98796837        0.080000
         8         -0.98839358        0.080000
         9         -0.99005746        0.080000
        10         -0.99172931        0.080000
        11         -0.99249981        0.080000
        12         -0.99258423        0.080000
        13         -0.99289483        0.080000
        14         -0.99311867        0.080000
        15         -0.99314993        0.080000
        16         -0.99406307        0.080000
        17         -0.99460137        0.080000
        18         -0.99475022        0.080000
        19         -0.99497558        0.080000
        20         -0.99554134        0.080000
        21         -0.99554234        0.080000
        22         -0.99569562        0.080000
        23         -0.99577390        0.080000
        24         -0.99598660        0.080000
        25         -0.99599545        0.080000
        26         -0.99599838        0.080000
        27         -0.99602164        0.076951
        28         -0.99623409        0.076951
        29         -0.99630692        0.076951
        30         -0.99633992        0.067247
        31         -0.99635492        0.059907
        32         -0.99639508        0.036313
        33         -0.99639697        0.036313
        34         -0.99640521        0.031129
        35         -0.99640560        0.031129
        36         -0.99640713        0.027203
        37         -0.99640884        0.027203
        38         -0.99642055        0.027203
        39         -0.99642070        0.027203
        40         -0.99642581        0.027203
        41         -0.99643148        0.027203
        42         -0.99643580        0.019990
        43         -0.99644107        0.019990
        44         -0.99644261        0.018867
        45         -0.99644643        0.016487
        46         -0.99644982        0.016487
        47         -0.99645003        0.016487
        48         -0.99645179        0.016487
        49         -0.99645361        0.011885
        50         -0.99645673        0.011885
        51         -0.99645714        0.011885
        52         -0.99645772        0.011885
        53         -0.99645776        0.010793
        54         -0.99645791        0.010793
        55         -0.99645807        0.010793
        56         -0.99645845        0.010793
        57         -0.99645863        0.010793
        58         -0.99645942        0.008243
        59         -0.99645961        0.008243
        60         -0.99645995        0.008243
        61         -0.99646005        0.008243
        62         -0.99646036        0.005396
        63         -0.99646072        0.005396
        64         -0.99646135        0.005396
        65         -0.99646200        0.005396
        66         -0.99646202        0.004900
        67         -0.99646207        0.003147
        68         -0.99646214        0.003147
        69         -0.99646222        0.002698
        70         -0.99646238        0.002698
        71         -0.99646241        0.002698
        72         -0.99646241        0.002357
        73         -0.99646244        0.002357
        74         -0.99646244        0.002357
        75         -0.99646245        0.002357
        76         -0.99646246        0.001050
        77         -0.99646246        0.001050
        78         -0.99646248        0.001050
        79         -0.99646250        0.001050
        80         -0.99646251        0.000954
        81         -0.99646252        0.000954
        82         -0.99646253        0.000728
        83         -0.99646253        0.000535
        84         -0.99646253        0.000459
        85         -0.99646253        0.000459
        86         -0.99646254        0.000459
        87         -0.99646254        0.000459
        88         -0.99646254        0.000459
        89         -0.99646254        0.000331
        90         -0.99646254        0.000306
        91         -0.99646254        0.000306
        92         -0.99646254        0.000306
        93         -0.99646254        0.000306
        94         -0.99646254        0.000221
        95         -0.99646254        0.000200
        96         -0.99646254        0.000200
        97         -0.99646254        0.000172
        98         -0.99646255        0.000172
        99         -0.99646255        0.000150
       100         -0.99646255        0.000150
       101         -0.99646255        0.000093
       102         -0.99646255        0.000068
       103         -0.99646255        0.000058
       104         -0.99646255        0.000058
       105         -0.99646255        0.000058
       106         -0.99646255        0.000042
       107         -0.99646255        0.000042
       108         -0.99646255        0.000032
       109         -0.99646255        0.000032
       110         -0.99646255        0.000028
       111         -0.99646255        0.000028
       112         -0.99646255        0.000028
       113         -0.99646255        0.000024
       114         -0.99646255        0.000024
       115         -0.99646255        0.000024
       116         -0.99646255        0.000015
       117         -0.99646255        0.000015
       118         -0.99646255        0.000014
       119         -0.99646255        0.000012
       120         -0.99646255        0.000012
       121         -0.99646255        0.000009
       122         -0.99646255        0.000007
       123         -0.99646255        0.000007
       124         -0.99646255        0.000006
       125         -0.99646255        0.000006
       126         -0.99646255        0.000006
       127         -0.99646255        0.000006
       128         -0.99646255        0.000005
       129         -0.99646255        0.000005
       130         -0.99646255        0.000004
       131         -0.99646255        0.000003
       132         -0.99646255        0.000003
       133         -0.99646255        0.000003
       134         -0.99646255        0.000003
       135         -0.99646255        0.000002
       136         -0.99646255        0.000002
       137         -0.99646255        0.000002
       138         -0.99646255        0.000002
       139         -0.99646255        0.000002
       140         -0.99646255        0.000002
       141         -0.99646255        0.000002
       142         -0.99646255        0.000002
       143         -0.99646255        0.000001
       144         -0.99646255        0.000001
       145         -0.99646255        0.000001
       146         -0.99646255        0.000001

 Reached Convergence

 WFN1                     :
 --------------------------
 Total WFN1 energy  =          -0.9964625456
 1-Electron energy  =          -1.2532455420
 2-Electron energy  =           0.1283917338
 Correlation energy =           0.0000000000
 DFT XC energy      =           0.0000000000
 Entropy energy     =           0.0000000000
 Nuclear energy     =           0.1283912626

 conventional Hartree-Fock:
 --------------------------
 Total SCF energy  =          -0.9964625456
 2-Electron energy =           0.1283917338

                WFN1 Final Natural orbital energies and occupations
                ---------------------------------------------------

              Alpha       Beta            Alpha       Beta  
            --------    --------        --------    --------
       1      0.0000      0.0000          1.0000      0.0000
       2      0.0000      0.0000          1.0000      0.0000
       3      0.0000      0.0000          0.0000      0.0000
       4      0.0000      0.0000          0.0000      0.0000

             WFN1 Final Correlation function energies and occupations
             --------------------------------------------------------

              Alpha       Beta            Alpha       Beta  
            --------    --------        --------    --------
       1      0.0000      0.0000          1.0000      0.0000
       2      0.0000      0.0000          1.0000      0.0000
       3      0.0000      0.0000          0.0000      0.0000
       4      0.0000      0.0000          0.0000      0.0000

                WFN1 Final alpha-alpha 2-matrix occupation numbers
                --------------------------------------------------


 global array: g_momo1[1:4,1:4],  handle: -990 

            1           2           3           4  
       ----------- ----------- ----------- -----------
   1       0.00000     1.00000     0.00000     0.00000
   2       1.00000     0.00000     0.00000     0.00000
   3       0.00000     0.00000     0.00000     0.00000
   4       0.00000     0.00000     0.00000     0.00000

                 WFN1 Final beta-beta 2-matrix occupation numbers
                 ------------------------------------------------


 global array: g_momo2[1:4,1:4],  handle: -989 

            1           2           3           4  
       ----------- ----------- ----------- -----------
   1       0.00000     0.00000     0.00000     0.00000
   2       0.00000     0.00000     0.00000     0.00000
   3       0.00000     0.00000     0.00000     0.00000
   4       0.00000     0.00000     0.00000     0.00000

                  WFN1 Final alpha Correlation Function Analysis
                  ----------------------------------------------


 global array: Ca[1:4,1:4],  handle: -981 

                     1                       2                       3                       4  
       ----------------------- ----------------------- ----------------------- -----------------------
   1      -0.74439,    0.10457    -0.65296,    0.09275     0.00000,   -0.00000     0.00000,    0.00000
   2       0.32305,   -0.57497    -0.36720,    0.65591    -0.00000,    0.00000     0.00000,   -0.00000
   3      -0.00000,   -0.00000     0.00000,   -0.00000    -0.75749,   -0.03606    -0.65085,   -0.03612
   4      -0.00000,   -0.00000     0.00000,    0.00000    -0.36744,   -0.53842     0.42252,    0.62974

                   WFN1 Final beta Correlation Function Analysis
                   ---------------------------------------------


 global array: Cb[1:4,1:4],  handle: -980 

                     1                       2                       3                       4  
       ----------------------- ----------------------- ----------------------- -----------------------
   1      -0.73621,    0.09165    -0.66083,    0.07922     0.05986,   -0.05224     0.01151,    0.01359
   2       0.31179,   -0.59032    -0.35081,    0.65476     0.00102,   -0.00827     0.00972,   -0.04862
   3      -0.01898,   -0.01159    -0.06501,   -0.02516    -0.78008,    0.00265    -0.62133,    0.00832
   4       0.00702,   -0.05799     0.01796,   -0.00828    -0.31274,   -0.53598     0.39870,    0.67242

                     WFN1 Final Alpha Natural Orbital Analysis
                     -----------------------------------------

 Vector    1  Occ=1.000000D+00  E= 0.000000D+00
              MO Center=  0.0D+00,  0.0D+00,  3.6D-01, r^2= 4.9D+00
   Bfn.  Coefficient  Atom+Function         Bfn.  Coefficient  Atom+Function  
  ----- ------------  ---------------      ----- ------------  ---------------
     4     -0.510379  2 H  s                  2     -0.427519  1 H  s          
     3     -0.326169  2 H  s                  1     -0.272621  1 H  s          

 Vector    2  Occ=1.000000D+00  E= 0.000000D+00
              MO Center=  0.0D+00,  0.0D+00, -3.6D-01, r^2= 4.9D+00
   Bfn.  Coefficient  Atom+Function         Bfn.  Coefficient  Atom+Function  
  ----- ------------  ---------------      ----- ------------  ---------------
     2     -0.509936  1 H  s                  4      0.426990  2 H  s          
     1     -0.329223  1 H  s                  3      0.276267  2 H  s          

 Vector    3  Occ=1.524828D-15  E= 0.000000D+00
              MO Center=  0.0D+00,  0.0D+00, -3.7D-02, r^2= 5.4D+00
   Bfn.  Coefficient  Atom+Function         Bfn.  Coefficient  Atom+Function  
  ----- ------------  ---------------      ----- ------------  ---------------
     1      0.895488  1 H  s                  3      0.879293  2 H  s          
     2     -0.813450  1 H  s                  4     -0.798551  2 H  s          

 Vector    4  Occ=2.744718D-14  E= 0.000000D+00
              MO Center=  0.0D+00,  0.0D+00,  3.7D-02, r^2= 5.5D+00
   Bfn.  Coefficient  Atom+Function         Bfn.  Coefficient  Atom+Function  
  ----- ------------  ---------------      ----- ------------  ---------------
     3      0.899446  2 H  s                  1     -0.883323  1 H  s          
     4     -0.827373  2 H  s                  2      0.812729  1 H  s          


                     WFN1 Final Beta Natural Orbital Analysis
                     ----------------------------------------

 Vector    1  Occ=0.000000D+00  E= 0.000000D+00
              MO Center=  0.0D+00,  0.0D+00,  8.3D-02, r^2= 5.2D+00
   Bfn.  Coefficient  Atom+Function         Bfn.  Coefficient  Atom+Function  
  ----- ------------  ---------------      ----- ------------  ---------------
     2     -0.569863  1 H  s                  4     -0.547813  2 H  s          
     3     -0.229091  2 H  s                  1     -0.166506  1 H  s          

 Vector    2  Occ=0.000000D+00  E= 0.000000D+00
              MO Center=  0.0D+00,  0.0D+00, -7.9D-02, r^2= 5.2D+00
   Bfn.  Coefficient  Atom+Function         Bfn.  Coefficient  Atom+Function  
  ----- ------------  ---------------      ----- ------------  ---------------
     2     -0.569402  1 H  s                  4      0.476993  2 H  s          
     3      0.280917  2 H  s                  1     -0.206229  1 H  s          

 Vector    3  Occ=0.000000D+00  E= 0.000000D+00
              MO Center=  0.0D+00,  0.0D+00,  2.1D-01, r^2= 5.2D+00
   Bfn.  Coefficient  Atom+Function         Bfn.  Coefficient  Atom+Function  
  ----- ------------  ---------------      ----- ------------  ---------------
     3      0.951971  2 H  s                  1      0.874777  1 H  s          
     4     -0.812624  2 H  s                  2     -0.679050  1 H  s          

 Vector    4  Occ=0.000000D+00  E= 0.000000D+00
              MO Center=  0.0D+00,  0.0D+00, -2.2D-01, r^2= 5.3D+00
   Bfn.  Coefficient  Atom+Function         Bfn.  Coefficient  Atom+Function  
  ----- ------------  ---------------      ----- ------------  ---------------
     1     -0.964043  1 H  s                  3      0.852774  2 H  s          
     2      0.809299  1 H  s                  4     -0.759644  2 H  s          


 Task  times  cpu:       14.3s     wall:       22.1s
 Summary of allocated global arrays
-----------------------------------
  No active global arrays



                         GA Statistics for process    0
                         ------------------------------

       create   destroy   get      put      acc     scatter   gather  read&inc
calls:   44       44     8.11e+06 2.80e+04 2.22e+04    0        0       11     
number of processes/call 1.00e+00 1.00e+00 1.00e+00 0.00e+00 0.00e+00
bytes total:             1.04e+09 4.96e+06 3.54e+06 0.00e+00 0.00e+00 8.80e+01
bytes remote:            0.00e+00 0.00e+00 0.00e+00 0.00e+00 0.00e+00 0.00e+00
Max memory consumed for GA by this process: 10624 bytes
MA_summarize_allocated_blocks: starting scan ...
MA_summarize_allocated_blocks: scan completed: 0 heap blocks, 0 stack blocks
MA usage statistics:

	allocation statistics:
					      heap	     stack
					      ----	     -----
	current number of blocks	         0	         0
	maximum number of blocks	        19	        17
	current total bytes		         0	         0
	maximum total bytes		   3204360	  22508648
	maximum total K-bytes		      3205	     22509
	maximum total M-bytes		         4	        23


                                NWChem Input Module
                                -------------------





                                     CITATION
                                     --------
                Please cite the following reference when publishing
                           results obtained with NWChem:

                 M. Valiev, E.J. Bylaska, N. Govind, K. Kowalski,
              T.P. Straatsma, H.J.J. van Dam, D. Wang, J. Nieplocha,
                        E. Apra, T.L. Windus, W.A. de Jong
                 "NWChem: a comprehensive and scalable open-source
                  solution for large scale molecular simulations"
                      Comput. Phys. Commun. 181, 1477 (2010)
                           doi:10.1016/j.cpc.2010.04.018

                                      AUTHORS
                                      -------
          E. Apra, E. J. Bylaska, W. A. de Jong, N. Govind, K. Kowalski,
       T. P. Straatsma, M. Valiev, H. J. J. van Dam, D. Wang, T. L. Windus,
        J. Hammond, J. Autschbach, K. Bhaskaran-Nair, J. Brabec, K. Lopata,
    S. A. Fischer, S. Krishnamoorthy, M. Jacquelin, W. Ma, M. Klemm, O. Villa,
      Y. Chen, V. Anisimov, F. Aquino, S. Hirata, M. T. Hackler, V. Konjkov,
      T. Risthaus, M. Malagoli, A. Marenich, A. Otero-de-la-Roza, J. Mullin,
        P. Nichols, R. Peverati, J. Pittner, Y. Zhao, P.-D. Fan, A. Fonari,
       M. Williamson, R. J. Harrison, J. R. Rehr, M. Dupuis, D. Silverstein,
    D. M. A. Smith, J. Nieplocha, V. Tipparaju, M. Krishnan, B. E. Van Kuiken,
        A. Vazquez-Mayagoitia, L. Jensen, M. Swart, Q. Wu, T. Van Voorhis,
     A. A. Auer, M. Nooijen, L. D. Crosby, E. Brown, G. Cisneros, G. I. Fann,
   H. Fruchtl, J. Garza, K. Hirao, R. A. Kendall, J. A. Nichols, K. Tsemekhman,
    K. Wolinski, J. Anchell, D. E. Bernholdt, P. Borowski, T. Clark, D. Clerc,
   H. Dachsel, M. J. O. Deegan, K. Dyall, D. Elwood, E. Glendening, M. Gutowski,
   A. C. Hess, J. Jaffe, B. G. Johnson, J. Ju, R. Kobayashi, R. Kutteh, Z. Lin,
   R. Littlefield, X. Long, B. Meng, T. Nakajima, S. Niu, L. Pollack, M. Rosing,
   K. Glaesemann, G. Sandrone, M. Stave, H. Taylor, G. Thomas, J. H. van Lenthe,
                               A. T. Wong, Z. Zhang.

 Total times  cpu:       14.3s     wall:       22.2s
