 argument  1 = input-wf.nw



============================== echo of input deck ==============================
echo
start wfn1_dat
geometry units au noautoz
  H 0 0 -4.59434600000000000000
  H 0 0  4.59434600000000000000
  symmetry cs
end
basis
  H library 6-31g
end
set wfn1:input_vectors "atomic"
set wfn1:solver "monte-carlo"
set wfn1:print_error F
set wfn1:t_initial 0.1
set wfn1:nopen 2
#set wfn1:corr_expr "wfn1_mx"
set wfn1:corr_expr "wfn1c"
set wfn1:t_bath 0.0
set wfn1:maxit  20000
task wfn1 energy
================================================================================


                                         
                                         


              Northwest Computational Chemistry Package (NWChem) 6.8
              ------------------------------------------------------


                    Environmental Molecular Sciences Laboratory
                       Pacific Northwest National Laboratory
                                Richland, WA 99352

                              Copyright (c) 1994-2015
                       Pacific Northwest National Laboratory
                            Battelle Memorial Institute

             NWChem is an open-source computational chemistry package
                        distributed under the terms of the
                      Educational Community License (ECL) 2.0
             A copy of the license is included with this distribution
                              in the LICENSE.TXT file

                                  ACKNOWLEDGMENT
                                  --------------

            This software and its documentation were developed at the
            EMSL at Pacific Northwest National Laboratory, a multiprogram
            national laboratory, operated for the U.S. Department of Energy
            by Battelle under Contract Number DE-AC05-76RL01830. Support
            for this work was provided by the Department of Energy Office
            of Biological and Environmental Research, Office of Basic
            Energy Sciences, and the Office of Advanced Scientific Computing.


           Job information
           ---------------

    hostname        = erato
    program         = ../../../bin/LINUX64/nwchem
    date            = Sat Mar  6 01:45:21 2021

    compiled        = Sat_Mar_06_01:07:04_2021
    source          = /home/hvandam/nwchem-1-wfn1
    nwchem branch   = Development
    nwchem revision = nwchem_on_git-124-gad72d19fff205e319ffbbf2bca37a04ded6ad57b
    ga revision     = nwchem_on_git-124-gad72d19
    use scalapack   = F
    input           = input-wf.nw
    prefix          = wfn1_dat.
    data base       = ./wfn1_dat.db
    status          = startup
    nproc           =        1
    time left       =     -1s



           Memory information
           ------------------

    heap     =   13107200 doubles =    100.0 Mbytes
    stack    =   13107197 doubles =    100.0 Mbytes
    global   =   26214400 doubles =    200.0 Mbytes (distinct from heap & stack)
    total    =   52428797 doubles =    400.0 Mbytes
    verify   = yes
    hardfail = no 


           Directory information
           ---------------------

  0 permanent = .
  0 scratch   = .




                                NWChem Input Module
                                -------------------


 Turning off AUTOSYM since
 SYMMETRY directive was detected!



                             Geometry "geometry" -> ""
                             -------------------------

 Output coordinates in a.u. (scale by  1.000000000 to convert to a.u.)

  No.       Tag          Charge          X              Y              Z
 ---- ---------------- ---------- -------------- -------------- --------------
    1 H                    1.0000     0.00000000     0.00000000    -4.59434600
    2 H                    1.0000     0.00000000     0.00000000     4.59434600

      Atomic Mass 
      ----------- 

      H                  1.007825


 Effective nuclear repulsion energy (a.u.)       0.1088294177

            Nuclear Dipole moment (a.u.) 
            ----------------------------
        X                 Y               Z
 ---------------- ---------------- ----------------
     0.0000000000     0.0000000000     0.0000000000

      Symmetry information
      --------------------

 Group name             Cs        
 Group number              2
 Group order               2
 No. of unique centers     1

      Symmetry unique atoms

     1


            XYZ format geometry
            -------------------
     2
 geometry
 H                     0.00000000     0.00000000    -2.43122338
 H                     0.00000000     0.00000000     2.43122338

                      Basis "ao basis" -> "" (cartesian)
                      -----
  H (Hydrogen)
  ------------
            Exponent  Coefficients 
       -------------- ---------------------------------------------------------
  1 S  1.87311370E+01  0.033495
  1 S  2.82539370E+00  0.234727
  1 S  6.40121700E-01  0.813757

  2 S  1.61277800E-01  1.000000



 Summary of "ao basis" -> "" (cartesian)
 ------------------------------------------------------------------------------
       Tag                 Description            Shells   Functions and Types
 ---------------- ------------------------------  ------  ---------------------
 H                           6-31g                   2        2   2s



                                NWChem WFN1 Module
                                ------------------



          No. of electrons :     2
           Alpha electrons :     2
            Beta electrons :     0
          Charge           :     0
          Spin multiplicity:     3

 HvD: wfn1_inpdft
 HvD: nquad_task =                     1
 HvD: iangquad   =                     0
 HvD: gridtype   = user      
 HvD: leb        =  T
 HvD: radgrid    = murakn    
 HvD: trunc_neigh=  T
 HvD: lssw       =  T
 HvD: whichssw   = erf1    
 HvD: mxnrad     =                     0
 HvD: mxnang     =                     0
 HVD: wfn1: movecs_in  = atomic                                                                                                                                                                                                                                                          
 HVD: wfn1: movecs_out = ./wfn1_dat.movecs                                                                                                                                                                                                                                               

      Superposition of Atomic Density Guess
      -------------------------------------

 Sum of atomic energies:          -0.99646508

      Non-variational initial energy
      ------------------------------

 Total energy =      -0.682110
 1-e energy   =      -1.214125
 2-e energy   =       0.423185
 HOMO         =      -0.191738
 LUMO         =      -0.190634

 iteration              energy           error
 ---------              ------           -----
         0         -0.98469747        0.080000
         1         -0.98538098        0.080000
         2         -0.98552537        0.080000
         3         -0.98682757        0.080000
         4         -0.98735952        0.080000
         5         -0.98800338        0.080000
         6         -0.98872028        0.080000
         7         -0.98875278        0.080000
         8         -0.98878588        0.080000
         9         -0.98979735        0.080000
        10         -0.98995245        0.080000
        11         -0.99045729        0.080000
        12         -0.99093998        0.080000
        13         -0.99112676        0.080000
        14         -0.99167504        0.080000
        15         -0.99174447        0.080000
        16         -0.99255939        0.080000
        17         -0.99272518        0.080000
        18         -0.99335225        0.080000
        19         -0.99348405        0.080000
        20         -0.99355179        0.080000
        21         -0.99401280        0.080000
        22         -0.99448439        0.080000
        23         -0.99463441        0.080000
        24         -0.99516212        0.080000
        25         -0.99528297        0.080000
        26         -0.99541948        0.080000
        27         -0.99567528        0.080000
        28         -0.99573170        0.080000
        29         -0.99579119        0.080000
        30         -0.99582396        0.080000
        31         -0.99598615        0.080000
        32         -0.99622176        0.080000
        33         -0.99625995        0.072626
        34         -0.99630744        0.072626
        35         -0.99635321        0.044878
        36         -0.99636142        0.044878
        37         -0.99638726        0.044878
        38         -0.99640140        0.044878
        39         -0.99641627        0.039218
        40         -0.99642122        0.029950
        41         -0.99642585        0.029950
        42         -0.99643990        0.029950
        43         -0.99644035        0.029950
        44         -0.99644186        0.029950
        45         -0.99644273        0.018154
        46         -0.99645095        0.016807
        47         -0.99645103        0.016807
        48         -0.99645791        0.016807
        49         -0.99645974        0.014408
        50         -0.99646326        0.014408
        51         -0.99646345        0.010793
        52         -0.99646375        0.010793
        53         -0.99646456        0.006669
        54         -0.99646476        0.005828
        55         -0.99646490        0.005828
        56         -0.99646508        0.004201
        57         -0.99646527        0.003671
        58         -0.99646537        0.003147
        59         -0.99646543        0.003147
        60         -0.99646551        0.003147
        61         -0.99646561        0.002698
        62         -0.99646564        0.002698
        63         -0.99646566        0.002404
        64         -0.99646566        0.001485
        65         -0.99646574        0.001485
        66         -0.99646579        0.001485
        67         -0.99646582        0.001273
        68         -0.99646585        0.001134
        69         -0.99646587        0.001134
        70         -0.99646588        0.000972
        71         -0.99646588        0.000850
        72         -0.99646588        0.000850
        73         -0.99646588        0.000850
        74         -0.99646589        0.000850
        75         -0.99646590        0.000728
        76         -0.99646590        0.000728
        77         -0.99646590        0.000556
        78         -0.99646591        0.000486
        79         -0.99646591        0.000486
        80         -0.99646591        0.000486
        81         -0.99646591        0.000350
        82         -0.99646591        0.000312
        83         -0.99646591        0.000225
        84         -0.99646591        0.000225
        85         -0.99646591        0.000193
        86         -0.99646591        0.000169
        87         -0.99646591        0.000169
        88         -0.99646591        0.000169
        89         -0.99646591        0.000144
        90         -0.99646591        0.000144
        91         -0.99646591        0.000144
        92         -0.99646591        0.000144
        93         -0.99646591        0.000144
        94         -0.99646591        0.000144
        95         -0.99646591        0.000129
        96         -0.99646591        0.000129
        97         -0.99646591        0.000102
        98         -0.99646591        0.000089
        99         -0.99646591        0.000064
       100         -0.99646591        0.000064
       101         -0.99646591        0.000055
       102         -0.99646591        0.000034
       103         -0.99646591        0.000034
       104         -0.99646591        0.000034
       105         -0.99646591        0.000034
       106         -0.99646591        0.000029
       107         -0.99646591        0.000029
       108         -0.99646591        0.000022
       109         -0.99646591        0.000022
       110         -0.99646591        0.000022
       111         -0.99646591        0.000022
       112         -0.99646591        0.000020
       113         -0.99646591        0.000020
       114         -0.99646591        0.000020
       115         -0.99646591        0.000020
       116         -0.99646591        0.000018
       117         -0.99646591        0.000018
       118         -0.99646591        0.000018
       119         -0.99646591        0.000018
       120         -0.99646591        0.000011
       121         -0.99646591        0.000011
       122         -0.99646591        0.000009
       123         -0.99646591        0.000008
       124         -0.99646591        0.000005
       125         -0.99646591        0.000004
       126         -0.99646591        0.000004
       127         -0.99646591        0.000004
       128         -0.99646591        0.000004
       129         -0.99646591        0.000003
       130         -0.99646591        0.000003
       131         -0.99646591        0.000003
       132         -0.99646591        0.000003
       133         -0.99646591        0.000003
       134         -0.99646591        0.000003
       135         -0.99646591        0.000003
       136         -0.99646591        0.000002
       137         -0.99646591        0.000002
       138         -0.99646591        0.000002
       139         -0.99646591        0.000002
       140         -0.99646591        0.000002
       141         -0.99646591        0.000001
       142         -0.99646591        0.000001

 Reached Convergence

 WFN1                     :
 --------------------------
 Total WFN1 energy  =          -0.9964659143
 1-Electron energy  =          -1.2141248859
 2-Electron energy  =           0.1088295539
 Correlation energy =           0.0000000000
 DFT XC energy      =           0.0000000000
 Entropy energy     =           0.0000000000
 Nuclear energy     =           0.1088294177

 conventional Hartree-Fock:
 --------------------------
 Total SCF energy  =          -0.9964659143
 2-Electron energy =           0.1088295539

                WFN1 Final Natural orbital energies and occupations
                ---------------------------------------------------

              Alpha       Beta            Alpha       Beta  
            --------    --------        --------    --------
       1      0.0000      0.0000          1.0000      0.0000
       2      0.0000      0.0000          1.0000      0.0000
       3      0.0000      0.0000          0.0000      0.0000
       4      0.0000      0.0000          0.0000      0.0000

             WFN1 Final Correlation function energies and occupations
             --------------------------------------------------------

              Alpha       Beta            Alpha       Beta  
            --------    --------        --------    --------
       1      0.0000      0.0000          1.0000      0.0000
       2      0.0000      0.0000          1.0000      0.0000
       3      0.0000      0.0000          0.0000      0.0000
       4      0.0000      0.0000          0.0000      0.0000

                WFN1 Final alpha-alpha 2-matrix occupation numbers
                --------------------------------------------------


 global array: g_momo1[1:4,1:4],  handle: -990 

            1           2           3           4  
       ----------- ----------- ----------- -----------
   1      -0.00000     1.00000     0.00000     0.00000
   2       1.00000     0.00000     0.00000     0.00000
   3       0.00000     0.00000     0.00000     0.00000
   4       0.00000     0.00000     0.00000     0.00000

                 WFN1 Final beta-beta 2-matrix occupation numbers
                 ------------------------------------------------


 global array: g_momo2[1:4,1:4],  handle: -989 

            1           2           3           4  
       ----------- ----------- ----------- -----------
   1       0.00000     0.00000     0.00000     0.00000
   2       0.00000     0.00000     0.00000     0.00000
   3       0.00000     0.00000     0.00000     0.00000
   4       0.00000     0.00000     0.00000     0.00000

                  WFN1 Final alpha Correlation Function Analysis
                  ----------------------------------------------


 global array: Ca[1:4,1:4],  handle: -981 

                     1                       2                       3                       4  
       ----------------------- ----------------------- ----------------------- -----------------------
   1      -0.52102,   -0.48258    -0.51736,   -0.47749     0.00000,    0.00000    -0.00000,    0.00000
   2       0.03796,   -0.70300    -0.03704,    0.70921     0.00000,   -0.00000     0.00000,   -0.00000
   3       0.00000,   -0.00000     0.00000,    0.00000    -0.32920,    0.64531    -0.31616,    0.61257
   4       0.00000,   -0.00000    -0.00000,   -0.00000    -0.42553,   -0.54234     0.44448,    0.57204

                   WFN1 Final beta Correlation Function Analysis
                   ---------------------------------------------


 global array: Cb[1:4,1:4],  handle: -980 

                     1                       2                       3                       4  
       ----------------------- ----------------------- ----------------------- -----------------------
   1      -0.50633,   -0.52557    -0.47508,   -0.48560    -0.06648,   -0.03326    -0.00213,   -0.01893
   2      -0.00487,   -0.68106     0.01030,    0.72893     0.02624,    0.02702    -0.00950,   -0.05643
   3       0.02630,   -0.05088     0.02959,   -0.01897    -0.35548,    0.66072    -0.31660,    0.57648
   4      -0.01120,   -0.01125     0.01615,    0.07451    -0.41281,   -0.50963     0.46760,    0.58750

                     WFN1 Final Alpha Natural Orbital Analysis
                     -----------------------------------------

 Vector    1  Occ=1.000000D+00  E= 0.000000D+00
              MO Center=  0.0D+00,  0.0D+00,  1.8D-01, r^2= 6.7D+00
   Bfn.  Coefficient  Atom+Function         Bfn.  Coefficient  Atom+Function  
  ----- ------------  ---------------      ----- ------------  ---------------
     4     -0.487715  2 H  s                  2     -0.453099  1 H  s          
     3     -0.312769  2 H  s                  1     -0.290497  1 H  s          

 Vector    2  Occ=1.000000D+00  E= 0.000000D+00
              MO Center=  0.0D+00,  0.0D+00, -1.8D-01, r^2= 6.7D+00
   Bfn.  Coefficient  Atom+Function         Bfn.  Coefficient  Atom+Function  
  ----- ------------  ---------------      ----- ------------  ---------------
     2      0.487364  1 H  s                  4     -0.452721  2 H  s          
     1      0.313542  1 H  s                  3     -0.291329  2 H  s          

 Vector    3  Occ=8.249982D-15  E= 0.000000D+00
              MO Center=  0.0D+00,  0.0D+00,  5.7D-01, r^2= 6.8D+00
   Bfn.  Coefficient  Atom+Function         Bfn.  Coefficient  Atom+Function  
  ----- ------------  ---------------      ----- ------------  ---------------
     3     -0.987294  2 H  s                  4      0.901695  2 H  s          
     1     -0.778702  1 H  s                  2      0.710810  1 H  s          

 Vector    4  Occ=8.621242D-15  E= 0.000000D+00
              MO Center=  0.0D+00,  0.0D+00, -5.7D-01, r^2= 6.8D+00
   Bfn.  Coefficient  Atom+Function         Bfn.  Coefficient  Atom+Function  
  ----- ------------  ---------------      ----- ------------  ---------------
     1     -0.987766  1 H  s                  2      0.903707  1 H  s          
     3      0.779301  2 H  s                  4     -0.713361  2 H  s          


                     WFN1 Final Beta Natural Orbital Analysis
                     ----------------------------------------

 Vector    1  Occ=0.000000D+00  E= 0.000000D+00
              MO Center=  0.0D+00,  0.0D+00,  1.5D-01, r^2= 6.9D+00
   Bfn.  Coefficient  Atom+Function         Bfn.  Coefficient  Atom+Function  
  ----- ------------  ---------------      ----- ------------  ---------------
     2     -0.606554  1 H  s                  4     -0.540251  2 H  s          
     3     -0.247878  2 H  s                  1     -0.111758  1 H  s          

 Vector    2  Occ=0.000000D+00  E= 0.000000D+00
              MO Center=  0.0D+00,  0.0D+00, -1.6D-01, r^2= 6.8D+00
   Bfn.  Coefficient  Atom+Function         Bfn.  Coefficient  Atom+Function  
  ----- ------------  ---------------      ----- ------------  ---------------
     2      0.569241  1 H  s                  4     -0.528677  2 H  s          
     1      0.216167  1 H  s                  3     -0.208321  2 H  s          

 Vector    3  Occ=0.000000D+00  E= 0.000000D+00
              MO Center=  0.0D+00,  0.0D+00,  9.4D-02, r^2= 6.9D+00
   Bfn.  Coefficient  Atom+Function         Bfn.  Coefficient  Atom+Function  
  ----- ------------  ---------------      ----- ------------  ---------------
     3     -0.938440  2 H  s                  1     -0.903739  1 H  s          
     4      0.758260  2 H  s                  2      0.726204  1 H  s          

 Vector    4  Occ=0.000000D+00  E= 0.000000D+00
              MO Center=  0.0D+00,  0.0D+00, -8.2D-02, r^2= 7.0D+00
   Bfn.  Coefficient  Atom+Function         Bfn.  Coefficient  Atom+Function  
  ----- ------------  ---------------      ----- ------------  ---------------
     1     -0.942759  1 H  s                  3      0.882749  2 H  s          
     4     -0.786403  2 H  s                  2      0.738542  1 H  s          


 Task  times  cpu:       14.4s     wall:       24.9s
 Summary of allocated global arrays
-----------------------------------
  No active global arrays



                         GA Statistics for process    0
                         ------------------------------

       create   destroy   get      put      acc     scatter   gather  read&inc
calls:   44       44     7.98e+06 2.76e+04 2.19e+04    0        0       11     
number of processes/call 1.00e+00 1.00e+00 1.00e+00 0.00e+00 0.00e+00
bytes total:             1.03e+09 4.88e+06 3.48e+06 0.00e+00 0.00e+00 8.80e+01
bytes remote:            0.00e+00 0.00e+00 0.00e+00 0.00e+00 0.00e+00 0.00e+00
Max memory consumed for GA by this process: 10624 bytes
MA_summarize_allocated_blocks: starting scan ...
MA_summarize_allocated_blocks: scan completed: 0 heap blocks, 0 stack blocks
MA usage statistics:

	allocation statistics:
					      heap	     stack
					      ----	     -----
	current number of blocks	         0	         0
	maximum number of blocks	        19	        17
	current total bytes		         0	         0
	maximum total bytes		   3204328	  22508616
	maximum total K-bytes		      3205	     22509
	maximum total M-bytes		         4	        23


                                NWChem Input Module
                                -------------------





                                     CITATION
                                     --------
                Please cite the following reference when publishing
                           results obtained with NWChem:

                 M. Valiev, E.J. Bylaska, N. Govind, K. Kowalski,
              T.P. Straatsma, H.J.J. van Dam, D. Wang, J. Nieplocha,
                        E. Apra, T.L. Windus, W.A. de Jong
                 "NWChem: a comprehensive and scalable open-source
                  solution for large scale molecular simulations"
                      Comput. Phys. Commun. 181, 1477 (2010)
                           doi:10.1016/j.cpc.2010.04.018

                                      AUTHORS
                                      -------
          E. Apra, E. J. Bylaska, W. A. de Jong, N. Govind, K. Kowalski,
       T. P. Straatsma, M. Valiev, H. J. J. van Dam, D. Wang, T. L. Windus,
        J. Hammond, J. Autschbach, K. Bhaskaran-Nair, J. Brabec, K. Lopata,
    S. A. Fischer, S. Krishnamoorthy, M. Jacquelin, W. Ma, M. Klemm, O. Villa,
      Y. Chen, V. Anisimov, F. Aquino, S. Hirata, M. T. Hackler, V. Konjkov,
      T. Risthaus, M. Malagoli, A. Marenich, A. Otero-de-la-Roza, J. Mullin,
        P. Nichols, R. Peverati, J. Pittner, Y. Zhao, P.-D. Fan, A. Fonari,
       M. Williamson, R. J. Harrison, J. R. Rehr, M. Dupuis, D. Silverstein,
    D. M. A. Smith, J. Nieplocha, V. Tipparaju, M. Krishnan, B. E. Van Kuiken,
        A. Vazquez-Mayagoitia, L. Jensen, M. Swart, Q. Wu, T. Van Voorhis,
     A. A. Auer, M. Nooijen, L. D. Crosby, E. Brown, G. Cisneros, G. I. Fann,
   H. Fruchtl, J. Garza, K. Hirao, R. A. Kendall, J. A. Nichols, K. Tsemekhman,
    K. Wolinski, J. Anchell, D. E. Bernholdt, P. Borowski, T. Clark, D. Clerc,
   H. Dachsel, M. J. O. Deegan, K. Dyall, D. Elwood, E. Glendening, M. Gutowski,
   A. C. Hess, J. Jaffe, B. G. Johnson, J. Ju, R. Kobayashi, R. Kutteh, Z. Lin,
   R. Littlefield, X. Long, B. Meng, T. Nakajima, S. Niu, L. Pollack, M. Rosing,
   K. Glaesemann, G. Sandrone, M. Stave, H. Taylor, G. Thomas, J. H. van Lenthe,
                               A. T. Wong, Z. Zhang.

 Total times  cpu:       14.4s     wall:       24.9s
