 argument  1 = input-wf.nw



============================== echo of input deck ==============================
echo
start wfn1_dat
geometry units au noautoz
  H 0 0 -3.34434600000000000000
  H 0 0  3.34434600000000000000
  symmetry cs
end
basis
  H library 6-31g
end
set wfn1:input_vectors "atomic"
set wfn1:solver "monte-carlo"
set wfn1:print_error F
set wfn1:t_initial 0.1
set wfn1:nopen 2
#set wfn1:corr_expr "wfn1_mx"
set wfn1:corr_expr "wfn1c"
set wfn1:t_bath 0.0
set wfn1:maxit  20000
task wfn1 energy
================================================================================


                                         
                                         


              Northwest Computational Chemistry Package (NWChem) 6.8
              ------------------------------------------------------


                    Environmental Molecular Sciences Laboratory
                       Pacific Northwest National Laboratory
                                Richland, WA 99352

                              Copyright (c) 1994-2015
                       Pacific Northwest National Laboratory
                            Battelle Memorial Institute

             NWChem is an open-source computational chemistry package
                        distributed under the terms of the
                      Educational Community License (ECL) 2.0
             A copy of the license is included with this distribution
                              in the LICENSE.TXT file

                                  ACKNOWLEDGMENT
                                  --------------

            This software and its documentation were developed at the
            EMSL at Pacific Northwest National Laboratory, a multiprogram
            national laboratory, operated for the U.S. Department of Energy
            by Battelle under Contract Number DE-AC05-76RL01830. Support
            for this work was provided by the Department of Energy Office
            of Biological and Environmental Research, Office of Basic
            Energy Sciences, and the Office of Advanced Scientific Computing.


           Job information
           ---------------

    hostname        = erato
    program         = ../../../bin/LINUX64/nwchem
    date            = Sat Mar  6 01:36:57 2021

    compiled        = Sat_Mar_06_01:07:04_2021
    source          = /home/hvandam/nwchem-1-wfn1
    nwchem branch   = Development
    nwchem revision = nwchem_on_git-124-gad72d19fff205e319ffbbf2bca37a04ded6ad57b
    ga revision     = nwchem_on_git-124-gad72d19
    use scalapack   = F
    input           = input-wf.nw
    prefix          = wfn1_dat.
    data base       = ./wfn1_dat.db
    status          = startup
    nproc           =        1
    time left       =     -1s



           Memory information
           ------------------

    heap     =   13107198 doubles =    100.0 Mbytes
    stack    =   13107195 doubles =    100.0 Mbytes
    global   =   26214400 doubles =    200.0 Mbytes (distinct from heap & stack)
    total    =   52428793 doubles =    400.0 Mbytes
    verify   = yes
    hardfail = no 


           Directory information
           ---------------------

  0 permanent = .
  0 scratch   = .




                                NWChem Input Module
                                -------------------


 Turning off AUTOSYM since
 SYMMETRY directive was detected!



                             Geometry "geometry" -> ""
                             -------------------------

 Output coordinates in a.u. (scale by  1.000000000 to convert to a.u.)

  No.       Tag          Charge          X              Y              Z
 ---- ---------------- ---------- -------------- -------------- --------------
    1 H                    1.0000     0.00000000     0.00000000    -3.34434600
    2 H                    1.0000     0.00000000     0.00000000     3.34434600

      Atomic Mass 
      ----------- 

      H                  1.007825


 Effective nuclear repulsion energy (a.u.)       0.1495060619

            Nuclear Dipole moment (a.u.) 
            ----------------------------
        X                 Y               Z
 ---------------- ---------------- ----------------
     0.0000000000     0.0000000000     0.0000000000

      Symmetry information
      --------------------

 Group name             Cs        
 Group number              2
 Group order               2
 No. of unique centers     1

      Symmetry unique atoms

     1


            XYZ format geometry
            -------------------
     2
 geometry
 H                     0.00000000     0.00000000    -1.76975182
 H                     0.00000000     0.00000000     1.76975182

                      Basis "ao basis" -> "" (cartesian)
                      -----
  H (Hydrogen)
  ------------
            Exponent  Coefficients 
       -------------- ---------------------------------------------------------
  1 S  1.87311370E+01  0.033495
  1 S  2.82539370E+00  0.234727
  1 S  6.40121700E-01  0.813757

  2 S  1.61277800E-01  1.000000



 Summary of "ao basis" -> "" (cartesian)
 ------------------------------------------------------------------------------
       Tag                 Description            Shells   Functions and Types
 ---------------- ------------------------------  ------  ---------------------
 H                           6-31g                   2        2   2s



                                NWChem WFN1 Module
                                ------------------



          No. of electrons :     2
           Alpha electrons :     2
            Beta electrons :     0
          Charge           :     0
          Spin multiplicity:     3

 HvD: wfn1_inpdft
 HvD: nquad_task =                     1
 HvD: iangquad   =                     0
 HvD: gridtype   = user      
 HvD: leb        =  T
 HvD: radgrid    = murakn    
 HvD: trunc_neigh=  T
 HvD: lssw       =  T
 HvD: whichssw   = erf1    
 HvD: mxnrad     =                     0
 HvD: mxnang     =                     0
 HVD: wfn1: movecs_in  = atomic                                                                                                                                                                                                                                                          
 HVD: wfn1: movecs_out = ./wfn1_dat.movecs                                                                                                                                                                                                                                               

      Superposition of Atomic Density Guess
      -------------------------------------

 Sum of atomic energies:          -0.99646508

      Non-variational initial energy
      ------------------------------

 Total energy =      -0.682153
 1-e energy   =      -1.295478
 2-e energy   =       0.463819
 HOMO         =      -0.199036
 LUMO         =      -0.183228

 iteration              energy           error
 ---------              ------           -----
         0         -0.98464250        0.080000
         1         -0.98519024        0.080000
         2         -0.98623875        0.080000
         3         -0.98706703        0.080000
         4         -0.98754190        0.080000
         5         -0.98766087        0.080000
         6         -0.98821824        0.080000
         7         -0.98965206        0.080000
         8         -0.99054138        0.080000
         9         -0.99076406        0.080000
        10         -0.99093822        0.080000
        11         -0.99163808        0.080000
        12         -0.99188231        0.080000
        13         -0.99236203        0.080000
        14         -0.99315442        0.080000
        15         -0.99382459        0.080000
        16         -0.99411814        0.080000
        17         -0.99417973        0.080000
        18         -0.99427881        0.080000
        19         -0.99455476        0.080000
        20         -0.99465672        0.080000
        21         -0.99489805        0.080000
        22         -0.99508818        0.080000
        23         -0.99524457        0.080000
        24         -0.99549790        0.080000
        25         -0.99608700        0.080000
        26         -0.99611256        0.080000
        27         -0.99618658        0.065965
        28         -0.99622434        0.065965
        29         -0.99624407        0.065965
        30         -0.99624850        0.065965
        31         -0.99629531        0.056547
        32         -0.99631672        0.051355
        33         -0.99633249        0.044023
        34         -0.99635092        0.044023
        35         -0.99637636        0.044023
        36         -0.99638249        0.026685
        37         -0.99639102        0.026685
        38         -0.99639542        0.019990
        39         -0.99639678        0.012352
        40         -0.99639781        0.010589
        41         -0.99639956        0.010589
        42         -0.99639965        0.007633
        43         -0.99640022        0.006670
        44         -0.99640108        0.005718
        45         -0.99640125        0.004902
        46         -0.99640127        0.004902
        47         -0.99640133        0.004902
        48         -0.99640165        0.004202
        49         -0.99640169        0.003148
        50         -0.99640174        0.003148
        51         -0.99640191        0.003148
        52         -0.99640202        0.003148
        53         -0.99640203        0.003148
        54         -0.99640208        0.002698
        55         -0.99640217        0.002498
        56         -0.99640223        0.002141
        57         -0.99640226        0.002141
        58         -0.99640229        0.001836
        59         -0.99640231        0.001836
        60         -0.99640233        0.001349
        61         -0.99640235        0.001349
        62         -0.99640235        0.001179
        63         -0.99640237        0.001179
        64         -0.99640238        0.001179
        65         -0.99640240        0.001030
        66         -0.99640242        0.000918
        67         -0.99640242        0.000787
        68         -0.99640242        0.000787
        69         -0.99640242        0.000477
        70         -0.99640242        0.000477
        71         -0.99640242        0.000417
        72         -0.99640243        0.000417
        73         -0.99640243        0.000417
        74         -0.99640243        0.000306
        75         -0.99640243        0.000306
        76         -0.99640243        0.000306
        77         -0.99640243        0.000273
        78         -0.99640243        0.000273
        79         -0.99640243        0.000273
        80         -0.99640243        0.000273
        81         -0.99640243        0.000273
        82         -0.99640243        0.000273
        83         -0.99640243        0.000172
        84         -0.99640243        0.000172
        85         -0.99640244        0.000136
        86         -0.99640244        0.000119
        87         -0.99640244        0.000119
        88         -0.99640244        0.000119
        89         -0.99640244        0.000119
        90         -0.99640244        0.000072
        91         -0.99640244        0.000072
        92         -0.99640244        0.000055
        93         -0.99640244        0.000055
        94         -0.99640244        0.000048
        95         -0.99640244        0.000042
        96         -0.99640244        0.000030
        97         -0.99640244        0.000030
        98         -0.99640244        0.000030
        99         -0.99640244        0.000030
       100         -0.99640244        0.000030
       101         -0.99640244        0.000026
       102         -0.99640244        0.000026
       103         -0.99640244        0.000026
       104         -0.99640244        0.000024
       105         -0.99640244        0.000024
       106         -0.99640244        0.000024
       107         -0.99640244        0.000021
       108         -0.99640244        0.000019
       109         -0.99640244        0.000019
       110         -0.99640244        0.000014
       111         -0.99640244        0.000014
       112         -0.99640244        0.000012
       113         -0.99640244        0.000011
       114         -0.99640244        0.000011
       115         -0.99640244        0.000011
       116         -0.99640244        0.000006
       117         -0.99640244        0.000005
       118         -0.99640244        0.000004
       119         -0.99640244        0.000004
       120         -0.99640244        0.000004
       121         -0.99640244        0.000003
       122         -0.99640244        0.000003
       123         -0.99640244        0.000003
       124         -0.99640244        0.000002
       125         -0.99640244        0.000002
       126         -0.99640244        0.000002
       127         -0.99640244        0.000002
       128         -0.99640244        0.000002
       129         -0.99640244        0.000002
       130         -0.99640244        0.000001

 Reached Convergence

 WFN1                     :
 --------------------------
 Total WFN1 energy  =          -0.9964024361
 1-Electron energy  =          -1.2953814801
 2-Electron energy  =           0.1494729821
 Correlation energy =           0.0000000000
 DFT XC energy      =           0.0000000000
 Entropy energy     =           0.0000000000
 Nuclear energy     =           0.1495060619

 conventional Hartree-Fock:
 --------------------------
 Total SCF energy  =          -0.9964024361
 2-Electron energy =           0.1494729821

                WFN1 Final Natural orbital energies and occupations
                ---------------------------------------------------

              Alpha       Beta            Alpha       Beta  
            --------    --------        --------    --------
       1      0.0000      0.0000          1.0000      0.0000
       2      0.0000      0.0000          1.0000      0.0000
       3      0.0000      0.0000          0.0000      0.0000
       4      0.0000      0.0000          0.0000      0.0000

             WFN1 Final Correlation function energies and occupations
             --------------------------------------------------------

              Alpha       Beta            Alpha       Beta  
            --------    --------        --------    --------
       1      0.0000      0.0000          1.0000      0.0000
       2      0.0000      0.0000          1.0000      0.0000
       3      0.0000      0.0000          0.0000      0.0000
       4      0.0000      0.0000          0.0000      0.0000

                WFN1 Final alpha-alpha 2-matrix occupation numbers
                --------------------------------------------------


 global array: g_momo1[1:4,1:4],  handle: -990 

            1           2           3           4  
       ----------- ----------- ----------- -----------
   1       0.00000     1.00000     0.00000     0.00000
   2       1.00000     0.00000     0.00000     0.00000
   3       0.00000     0.00000    -0.00000     0.00000
   4       0.00000     0.00000     0.00000     0.00000

                 WFN1 Final beta-beta 2-matrix occupation numbers
                 ------------------------------------------------


 global array: g_momo2[1:4,1:4],  handle: -989 

            1           2           3           4  
       ----------- ----------- ----------- -----------
   1       0.00000     0.00000     0.00000     0.00000
   2       0.00000     0.00000     0.00000     0.00000
   3       0.00000     0.00000     0.00000     0.00000
   4       0.00000     0.00000     0.00000     0.00000

                  WFN1 Final alpha Correlation Function Analysis
                  ----------------------------------------------


 global array: Ca[1:4,1:4],  handle: -981 

                     1                       2                       3                       4  
       ----------------------- ----------------------- ----------------------- -----------------------
   1      -0.51431,    0.53604    -0.46621,    0.48042     0.00000,    0.00000     0.00000,   -0.00000
   2      -0.64598,    0.17569     0.71792,   -0.19089     0.00000,   -0.00000    -0.00000,   -0.00000
   3       0.00000,   -0.00000    -0.00000,   -0.00000     0.72297,   -0.25332     0.60154,   -0.22648
   4      -0.00000,   -0.00000     0.00000,    0.00000    -0.24577,   -0.59392     0.30917,    0.70091

                   WFN1 Final beta Correlation Function Analysis
                   ---------------------------------------------


 global array: Cb[1:4,1:4],  handle: -980 

                     1                       2                       3                       4  
       ----------------------- ----------------------- ----------------------- -----------------------
   1      -0.50270,    0.52932    -0.46719,    0.49329     0.03833,    0.03838    -0.03398,    0.03771
   2      -0.65860,    0.17217     0.70778,   -0.18563     0.01943,    0.01110     0.00516,   -0.02576
   3      -0.01781,   -0.02943    -0.04226,   -0.02039     0.78919,   -0.23666     0.54243,   -0.15348
   4      -0.04972,   -0.00805    -0.01178,   -0.02548    -0.25952,   -0.50038     0.36442,    0.73902

                     WFN1 Final Alpha Natural Orbital Analysis
                     -----------------------------------------

 Vector    1  Occ=1.000000D+00  E= 0.000000D+00
              MO Center=  0.0D+00,  0.0D+00,  1.6D-01, r^2= 3.9D+00
   Bfn.  Coefficient  Atom+Function         Bfn.  Coefficient  Atom+Function  
  ----- ------------  ---------------      ----- ------------  ---------------
     4     -0.490255  2 H  s                  2     -0.446886  1 H  s          
     3     -0.312274  2 H  s                  1     -0.284144  1 H  s          

 Vector    2  Occ=1.000000D+00  E= 0.000000D+00
              MO Center=  0.0D+00,  0.0D+00, -1.6D-01, r^2= 3.9D+00
   Bfn.  Coefficient  Atom+Function         Bfn.  Coefficient  Atom+Function  
  ----- ------------  ---------------      ----- ------------  ---------------
     2      0.492970  1 H  s                  4     -0.449863  2 H  s          
     1      0.319499  1 H  s                  3     -0.292065  2 H  s          

 Vector    3  Occ=3.962850D-14  E= 0.000000D+00
              MO Center=  0.0D+00,  0.0D+00, -2.1D-01, r^2= 4.2D+00
   Bfn.  Coefficient  Atom+Function         Bfn.  Coefficient  Atom+Function  
  ----- ------------  ---------------      ----- ------------  ---------------
     1     -0.934238  1 H  s                  2      0.838954  1 H  s          
     3     -0.828462  2 H  s                  4      0.740257  2 H  s          

 Vector    4  Occ=1.897007D-14  E= 0.000000D+00
              MO Center=  0.0D+00,  0.0D+00,  2.1D-01, r^2= 4.4D+00
   Bfn.  Coefficient  Atom+Function         Bfn.  Coefficient  Atom+Function  
  ----- ------------  ---------------      ----- ------------  ---------------
     3      0.947021  2 H  s                  4     -0.881696  2 H  s          
     1     -0.842850  1 H  s                  2      0.788369  1 H  s          


                     WFN1 Final Beta Natural Orbital Analysis
                     ----------------------------------------

 Vector    1  Occ=0.000000D+00  E= 0.000000D+00
              MO Center=  0.0D+00,  0.0D+00, -2.0D-01, r^2= 4.0D+00
   Bfn.  Coefficient  Atom+Function         Bfn.  Coefficient  Atom+Function  
  ----- ------------  ---------------      ----- ------------  ---------------
     2     -0.552441  1 H  s                  4     -0.501476  2 H  s          
     1     -0.249746  1 H  s                  3     -0.210564  2 H  s          

 Vector    2  Occ=0.000000D+00  E= 0.000000D+00
              MO Center=  0.0D+00,  0.0D+00,  2.0D-01, r^2= 4.1D+00
   Bfn.  Coefficient  Atom+Function         Bfn.  Coefficient  Atom+Function  
  ----- ------------  ---------------      ----- ------------  ---------------
     4     -0.609389  2 H  s                  2      0.526397  1 H  s          
     1      0.196428  1 H  s                  3     -0.195508  2 H  s          

 Vector    3  Occ=0.000000D+00  E= 0.000000D+00
              MO Center=  0.0D+00,  0.0D+00, -9.3D-02, r^2= 4.1D+00
   Bfn.  Coefficient  Atom+Function         Bfn.  Coefficient  Atom+Function  
  ----- ------------  ---------------      ----- ------------  ---------------
     1     -0.923936  1 H  s                  3     -0.881589  2 H  s          
     2      0.781085  1 H  s                  4      0.723641  2 H  s          

 Vector    4  Occ=0.000000D+00  E= 0.000000D+00
              MO Center=  0.0D+00,  0.0D+00,  9.3D-02, r^2= 4.3D+00
   Bfn.  Coefficient  Atom+Function         Bfn.  Coefficient  Atom+Function  
  ----- ------------  ---------------      ----- ------------  ---------------
     3      0.951974  2 H  s                  1     -0.900777  1 H  s          
     4     -0.788420  2 H  s                  2      0.758760  1 H  s          


 Task  times  cpu:       13.3s     wall:       19.8s
 Summary of allocated global arrays
-----------------------------------
  No active global arrays



                         GA Statistics for process    0
                         ------------------------------

       create   destroy   get      put      acc     scatter   gather  read&inc
calls:   44       44     7.59e+06 2.63e+04 2.08e+04    0        0       11     
number of processes/call 1.00e+00 1.00e+00 1.00e+00 0.00e+00 0.00e+00
bytes total:             9.75e+08 4.64e+06 3.31e+06 0.00e+00 0.00e+00 8.80e+01
bytes remote:            0.00e+00 0.00e+00 0.00e+00 0.00e+00 0.00e+00 0.00e+00
Max memory consumed for GA by this process: 10624 bytes
MA_summarize_allocated_blocks: starting scan ...
MA_summarize_allocated_blocks: scan completed: 0 heap blocks, 0 stack blocks
MA usage statistics:

	allocation statistics:
					      heap	     stack
					      ----	     -----
	current number of blocks	         0	         0
	maximum number of blocks	        19	        17
	current total bytes		         0	         0
	maximum total bytes		   3204344	  22508664
	maximum total K-bytes		      3205	     22509
	maximum total M-bytes		         4	        23


                                NWChem Input Module
                                -------------------





                                     CITATION
                                     --------
                Please cite the following reference when publishing
                           results obtained with NWChem:

                 M. Valiev, E.J. Bylaska, N. Govind, K. Kowalski,
              T.P. Straatsma, H.J.J. van Dam, D. Wang, J. Nieplocha,
                        E. Apra, T.L. Windus, W.A. de Jong
                 "NWChem: a comprehensive and scalable open-source
                  solution for large scale molecular simulations"
                      Comput. Phys. Commun. 181, 1477 (2010)
                           doi:10.1016/j.cpc.2010.04.018

                                      AUTHORS
                                      -------
          E. Apra, E. J. Bylaska, W. A. de Jong, N. Govind, K. Kowalski,
       T. P. Straatsma, M. Valiev, H. J. J. van Dam, D. Wang, T. L. Windus,
        J. Hammond, J. Autschbach, K. Bhaskaran-Nair, J. Brabec, K. Lopata,
    S. A. Fischer, S. Krishnamoorthy, M. Jacquelin, W. Ma, M. Klemm, O. Villa,
      Y. Chen, V. Anisimov, F. Aquino, S. Hirata, M. T. Hackler, V. Konjkov,
      T. Risthaus, M. Malagoli, A. Marenich, A. Otero-de-la-Roza, J. Mullin,
        P. Nichols, R. Peverati, J. Pittner, Y. Zhao, P.-D. Fan, A. Fonari,
       M. Williamson, R. J. Harrison, J. R. Rehr, M. Dupuis, D. Silverstein,
    D. M. A. Smith, J. Nieplocha, V. Tipparaju, M. Krishnan, B. E. Van Kuiken,
        A. Vazquez-Mayagoitia, L. Jensen, M. Swart, Q. Wu, T. Van Voorhis,
     A. A. Auer, M. Nooijen, L. D. Crosby, E. Brown, G. Cisneros, G. I. Fann,
   H. Fruchtl, J. Garza, K. Hirao, R. A. Kendall, J. A. Nichols, K. Tsemekhman,
    K. Wolinski, J. Anchell, D. E. Bernholdt, P. Borowski, T. Clark, D. Clerc,
   H. Dachsel, M. J. O. Deegan, K. Dyall, D. Elwood, E. Glendening, M. Gutowski,
   A. C. Hess, J. Jaffe, B. G. Johnson, J. Ju, R. Kobayashi, R. Kutteh, Z. Lin,
   R. Littlefield, X. Long, B. Meng, T. Nakajima, S. Niu, L. Pollack, M. Rosing,
   K. Glaesemann, G. Sandrone, M. Stave, H. Taylor, G. Thomas, J. H. van Lenthe,
                               A. T. Wong, Z. Zhang.

 Total times  cpu:       13.3s     wall:       19.8s
