 argument  1 = input-wf.nw



============================== echo of input deck ==============================
echo
start wfn1_dat
geometry units au noautoz
  H 0 0 -1.54434600000000000000
  H 0 0  1.54434600000000000000
  symmetry cs
end
basis
  H library 6-31g
end
set wfn1:input_vectors "atomic"
set wfn1:solver "monte-carlo"
set wfn1:print_error F
set wfn1:t_initial 0.1
set wfn1:nopen 2
#set wfn1:corr_expr "wfn1_mx"
set wfn1:corr_expr "wfn1c"
set wfn1:t_bath 0.0
set wfn1:maxit  20000
task wfn1 energy
================================================================================


                                         
                                         


              Northwest Computational Chemistry Package (NWChem) 6.8
              ------------------------------------------------------


                    Environmental Molecular Sciences Laboratory
                       Pacific Northwest National Laboratory
                                Richland, WA 99352

                              Copyright (c) 1994-2015
                       Pacific Northwest National Laboratory
                            Battelle Memorial Institute

             NWChem is an open-source computational chemistry package
                        distributed under the terms of the
                      Educational Community License (ECL) 2.0
             A copy of the license is included with this distribution
                              in the LICENSE.TXT file

                                  ACKNOWLEDGMENT
                                  --------------

            This software and its documentation were developed at the
            EMSL at Pacific Northwest National Laboratory, a multiprogram
            national laboratory, operated for the U.S. Department of Energy
            by Battelle under Contract Number DE-AC05-76RL01830. Support
            for this work was provided by the Department of Energy Office
            of Biological and Environmental Research, Office of Basic
            Energy Sciences, and the Office of Advanced Scientific Computing.


           Job information
           ---------------

    hostname        = erato
    program         = ../../../bin/LINUX64/nwchem
    date            = Sat Mar  6 01:23:38 2021

    compiled        = Sat_Mar_06_01:07:04_2021
    source          = /home/hvandam/nwchem-1-wfn1
    nwchem branch   = Development
    nwchem revision = nwchem_on_git-124-gad72d19fff205e319ffbbf2bca37a04ded6ad57b
    ga revision     = nwchem_on_git-124-gad72d19
    use scalapack   = F
    input           = input-wf.nw
    prefix          = wfn1_dat.
    data base       = ./wfn1_dat.db
    status          = startup
    nproc           =        1
    time left       =     -1s



           Memory information
           ------------------

    heap     =   13107198 doubles =    100.0 Mbytes
    stack    =   13107195 doubles =    100.0 Mbytes
    global   =   26214400 doubles =    200.0 Mbytes (distinct from heap & stack)
    total    =   52428793 doubles =    400.0 Mbytes
    verify   = yes
    hardfail = no 


           Directory information
           ---------------------

  0 permanent = .
  0 scratch   = .




                                NWChem Input Module
                                -------------------


 Turning off AUTOSYM since
 SYMMETRY directive was detected!



                             Geometry "geometry" -> ""
                             -------------------------

 Output coordinates in a.u. (scale by  1.000000000 to convert to a.u.)

  No.       Tag          Charge          X              Y              Z
 ---- ---------------- ---------- -------------- -------------- --------------
    1 H                    1.0000     0.00000000     0.00000000    -1.54434600
    2 H                    1.0000     0.00000000     0.00000000     1.54434600

      Atomic Mass 
      ----------- 

      H                  1.007825


 Effective nuclear repulsion energy (a.u.)       0.3237616441

            Nuclear Dipole moment (a.u.) 
            ----------------------------
        X                 Y               Z
 ---------------- ---------------- ----------------
     0.0000000000     0.0000000000     0.0000000000

      Symmetry information
      --------------------

 Group name             Cs        
 Group number              2
 Group order               2
 No. of unique centers     1

      Symmetry unique atoms

     1


            XYZ format geometry
            -------------------
     2
 geometry
 H                     0.00000000     0.00000000    -0.81723277
 H                     0.00000000     0.00000000     0.81723277

                      Basis "ao basis" -> "" (cartesian)
                      -----
  H (Hydrogen)
  ------------
            Exponent  Coefficients 
       -------------- ---------------------------------------------------------
  1 S  1.87311370E+01  0.033495
  1 S  2.82539370E+00  0.234727
  1 S  6.40121700E-01  0.813757

  2 S  1.61277800E-01  1.000000



 Summary of "ao basis" -> "" (cartesian)
 ------------------------------------------------------------------------------
       Tag                 Description            Shells   Functions and Types
 ---------------- ------------------------------  ------  ---------------------
 H                           6-31g                   2        2   2s



                                NWChem WFN1 Module
                                ------------------



          No. of electrons :     2
           Alpha electrons :     2
            Beta electrons :     0
          Charge           :     0
          Spin multiplicity:     3

 HvD: wfn1_inpdft
 HvD: nquad_task =                     1
 HvD: iangquad   =                     0
 HvD: gridtype   = user      
 HvD: leb        =  T
 HvD: radgrid    = murakn    
 HvD: trunc_neigh=  T
 HvD: lssw       =  T
 HvD: whichssw   = erf1    
 HvD: mxnrad     =                     0
 HvD: mxnang     =                     0
 HVD: wfn1: movecs_in  = atomic                                                                                                                                                                                                                                                          
 HVD: wfn1: movecs_out = ./wfn1_dat.movecs                                                                                                                                                                                                                                               

      Superposition of Atomic Density Guess
      -------------------------------------

 Sum of atomic energies:          -0.99646508

      Non-variational initial energy
      ------------------------------

 Total energy =      -0.713918
 1-e energy   =      -1.640210
 2-e energy   =       0.602531
 HOMO         =      -0.314798
 LUMO         =      -0.052483

 iteration              energy           error
 ---------              ------           -----
         0         -0.95607227        0.080000
         1         -0.95773069        0.080000
         2         -0.95962568        0.080000
         3         -0.95988317        0.080000
         4         -0.96032009        0.080000
         5         -0.96082512        0.080000
         6         -0.96197977        0.080000
         7         -0.96270348        0.080000
         8         -0.96425658        0.080000
         9         -0.96431472        0.080000
        10         -0.96442869        0.080000
        11         -0.96547727        0.080000
        12         -0.96590001        0.080000
        13         -0.96596903        0.080000
        14         -0.96621757        0.080000
        15         -0.96624671        0.080000
        16         -0.96647580        0.080000
        17         -0.96746936        0.080000
        18         -0.96800040        0.080000
        19         -0.96810706        0.080000
        20         -0.96833866        0.080000
        21         -0.96845753        0.080000
        22         -0.96875914        0.080000
        23         -0.96895628        0.080000
        24         -0.96900482        0.062265
        25         -0.96902500        0.062265
        26         -0.96906399        0.062265
        27         -0.96906757        0.044884
        28         -0.96911834        0.044884
        29         -0.96914567        0.039985
        30         -0.96915599        0.039985
        31         -0.96916669        0.034942
        32         -0.96919989        0.034942
        33         -0.96920574        0.030536
        34         -0.96921087        0.022439
        35         -0.96921217        0.016175
        36         -0.96921396        0.013866
        37         -0.96921518        0.013866
        38         -0.96921666        0.009995
        39         -0.96921692        0.009995
        40         -0.96921815        0.009995
        41         -0.96921938        0.009995
        42         -0.96921994        0.008735
        43         -0.96922017        0.007932
        44         -0.96922100        0.006800
        45         -0.96922101        0.005829
        46         -0.96922126        0.004997
        47         -0.96922146        0.004283
        48         -0.96922152        0.003672
        49         -0.96922154        0.003672
        50         -0.96922162        0.003672
        51         -0.96922164        0.003672
        52         -0.96922170        0.003672
        53         -0.96922176        0.003672
        54         -0.96922177        0.002647
        55         -0.96922185        0.002101
        56         -0.96922185        0.002101
        57         -0.96922188        0.002101
        58         -0.96922209        0.002101
        59         -0.96922211        0.001801
        60         -0.96922214        0.001801
        61         -0.96922214        0.001156
        62         -0.96922215        0.001156
        63         -0.96922216        0.001156
        64         -0.96922217        0.001011
        65         -0.96922218        0.000900
        66         -0.96922219        0.000900
        67         -0.96922219        0.000900
        68         -0.96922219        0.000649
        69         -0.96922220        0.000578
        70         -0.96922220        0.000496
        71         -0.96922220        0.000496
        72         -0.96922221        0.000496
        73         -0.96922221        0.000425
        74         -0.96922221        0.000425
        75         -0.96922221        0.000378
        76         -0.96922221        0.000278
        77         -0.96922221        0.000238
        78         -0.96922221        0.000204
        79         -0.96922221        0.000147
        80         -0.96922221        0.000126
        81         -0.96922221        0.000126
        82         -0.96922221        0.000108
        83         -0.96922221        0.000095
        84         -0.96922221        0.000081
        85         -0.96922221        0.000081
        86         -0.96922221        0.000081
        87         -0.96922221        0.000070
        88         -0.96922221        0.000070
        89         -0.96922221        0.000070
        90         -0.96922221        0.000070
        91         -0.96922221        0.000052
        92         -0.96922221        0.000047
        93         -0.96922221        0.000041
        94         -0.96922221        0.000041
        95         -0.96922221        0.000029
        96         -0.96922221        0.000029
        97         -0.96922221        0.000029
        98         -0.96922221        0.000018
        99         -0.96922221        0.000018
       100         -0.96922221        0.000018
       101         -0.96922221        0.000018
       102         -0.96922221        0.000018
       103         -0.96922221        0.000018
       104         -0.96922221        0.000018
       105         -0.96922221        0.000018
       106         -0.96922221        0.000018
       107         -0.96922221        0.000016
       108         -0.96922221        0.000016
       109         -0.96922221        0.000016
       110         -0.96922221        0.000014
       111         -0.96922221        0.000012
       112         -0.96922221        0.000012
       113         -0.96922221        0.000009
       114         -0.96922221        0.000009
       115         -0.96922221        0.000009
       116         -0.96922221        0.000005
       117         -0.96922221        0.000005
       118         -0.96922221        0.000005
       119         -0.96922221        0.000005
       120         -0.96922221        0.000004
       121         -0.96922221        0.000004
       122         -0.96922221        0.000004
       123         -0.96922221        0.000004
       124         -0.96922221        0.000003
       125         -0.96922221        0.000003
       126         -0.96922221        0.000003
       127         -0.96922221        0.000003
       128         -0.96922221        0.000002
       129         -0.96922221        0.000002
       130         -0.96922221        0.000002
       131         -0.96922221        0.000002
       132         -0.96922221        0.000002
       133         -0.96922221        0.000002
       134         -0.96922221        0.000001
       135         -0.96922221        0.000001
       136         -0.96922221        0.000001
       137         -0.96922221        0.000001

 Reached Convergence

 WFN1                     :
 --------------------------
 Total WFN1 energy  =          -0.9692222137
 1-Electron energy  =          -1.5818131751
 2-Electron energy  =           0.2888293173
 Correlation energy =           0.0000000000
 DFT XC energy      =           0.0000000000
 Entropy energy     =           0.0000000000
 Nuclear energy     =           0.3237616441

 conventional Hartree-Fock:
 --------------------------
 Total SCF energy  =          -0.9692222137
 2-Electron energy =           0.2888293173

                WFN1 Final Natural orbital energies and occupations
                ---------------------------------------------------

              Alpha       Beta            Alpha       Beta  
            --------    --------        --------    --------
       1      0.0000      0.0000          1.0000      0.0000
       2      0.0000      0.0000          1.0000      0.0000
       3      0.0000      0.0000          0.0000      0.0000
       4      0.0000      0.0000          0.0000      0.0000

             WFN1 Final Correlation function energies and occupations
             --------------------------------------------------------

              Alpha       Beta            Alpha       Beta  
            --------    --------        --------    --------
       1      0.0000      0.0000          1.0000      0.0000
       2      0.0000      0.0000          1.0000      0.0000
       3      0.0000      0.0000          0.0000      0.0000
       4      0.0000      0.0000          0.0000      0.0000

                WFN1 Final alpha-alpha 2-matrix occupation numbers
                --------------------------------------------------


 global array: g_momo1[1:4,1:4],  handle: -990 

            1           2           3           4  
       ----------- ----------- ----------- -----------
   1       0.00000     1.00000     0.00000     0.00000
   2       1.00000     0.00000     0.00000     0.00000
   3       0.00000     0.00000     0.00000     0.00000
   4       0.00000     0.00000     0.00000    -0.00000

                 WFN1 Final beta-beta 2-matrix occupation numbers
                 ------------------------------------------------


 global array: g_momo2[1:4,1:4],  handle: -989 

            1           2           3           4  
       ----------- ----------- ----------- -----------
   1       0.00000     0.00000     0.00000     0.00000
   2       0.00000     0.00000     0.00000     0.00000
   3       0.00000     0.00000     0.00000     0.00000
   4       0.00000     0.00000     0.00000     0.00000

                  WFN1 Final alpha Correlation Function Analysis
                  ----------------------------------------------


 global array: Ca[1:4,1:4],  handle: -977 

                     1                       2                       3                       4  
       ----------------------- ----------------------- ----------------------- -----------------------
   1      -0.95007,   -0.19228     0.24563,   -0.00823    -0.00000,    0.00000     0.00000,    0.00000
   2      -0.22434,   -0.10036    -0.95235,   -0.18063     0.00000,   -0.00000     0.00000,   -0.00000
   3       0.00000,    0.00000    -0.00000,   -0.00000    -0.17517,    0.66186    -0.18151,    0.70591
   4      -0.00000,    0.00000    -0.00000,   -0.00000     0.31485,   -0.65736    -0.29138,    0.61955

                   WFN1 Final beta Correlation Function Analysis
                   ---------------------------------------------


 global array: Cb[1:4,1:4],  handle: -976 

                     1                       2                       3                       4  
       ----------------------- ----------------------- ----------------------- -----------------------
   1      -0.92093,   -0.21332     0.28916,    0.09876    -0.00901,   -0.08327     0.04632,   -0.06209
   2      -0.30661,   -0.01415    -0.93710,   -0.15316    -0.00897,   -0.01697     0.04268,    0.04454
   3      -0.09309,   -0.02990     0.03088,    0.03797    -0.26076,    0.74013    -0.21909,    0.56944
   4      -0.01134,    0.04980     0.02670,    0.04374     0.19571,   -0.58184    -0.27885,    0.73496

                     WFN1 Final Alpha Natural Orbital Analysis
                     -----------------------------------------

 Vector    1  Occ=1.000000D+00  E= 0.000000D+00
              MO Center=  0.0D+00,  0.0D+00, -1.1D-02, r^2= 1.3D+00
   Bfn.  Coefficient  Atom+Function         Bfn.  Coefficient  Atom+Function  
  ----- ------------  ---------------      ----- ------------  ---------------
     2     -0.388668  1 H  s                  4     -0.380705  2 H  s          
     1     -0.298215  1 H  s                  3     -0.294011  2 H  s          

 Vector    2  Occ=1.000000D+00  E= 0.000000D+00
              MO Center=  0.0D+00,  0.0D+00,  1.1D-02, r^2= 1.7D+00
   Bfn.  Coefficient  Atom+Function         Bfn.  Coefficient  Atom+Function  
  ----- ------------  ---------------      ----- ------------  ---------------
     4      0.622024  2 H  s                  2     -0.617079  1 H  s          
     3      0.328996  2 H  s                  1     -0.325190  1 H  s          

 Vector    3  Occ=5.100286D-15  E= 0.000000D+00
              MO Center=  0.0D+00,  0.0D+00, -9.7D-02, r^2= 2.4D+00
   Bfn.  Coefficient  Atom+Function         Bfn.  Coefficient  Atom+Function  
  ----- ------------  ---------------      ----- ------------  ---------------
     2     -1.148899  1 H  s                  4      1.074212  2 H  s          
     1      0.937785  1 H  s                  3     -0.841570  2 H  s          

 Vector    4  Occ=9.634081D-16  E= 0.000000D+00
              MO Center=  0.0D+00,  0.0D+00,  9.7D-02, r^2= 1.8D+00
   Bfn.  Coefficient  Atom+Function         Bfn.  Coefficient  Atom+Function  
  ----- ------------  ---------------      ----- ------------  ---------------
     3      0.958060  2 H  s                  1      0.864105  1 H  s          
     4     -0.765917  2 H  s                  2     -0.648531  1 H  s          


                     WFN1 Final Beta Natural Orbital Analysis
                     ----------------------------------------

 Vector    1  Occ=0.000000D+00  E= 0.000000D+00
              MO Center=  0.0D+00,  0.0D+00, -8.5D-03, r^2= 1.4D+00
   Bfn.  Coefficient  Atom+Function         Bfn.  Coefficient  Atom+Function  
  ----- ------------  ---------------      ----- ------------  ---------------
     2     -0.446309  1 H  s                  4     -0.365124  2 H  s          
     3     -0.301999  2 H  s                  1     -0.234237  1 H  s          

 Vector    2  Occ=0.000000D+00  E= 0.000000D+00
              MO Center=  0.0D+00,  0.0D+00, -8.8D-04, r^2= 1.8D+00
   Bfn.  Coefficient  Atom+Function         Bfn.  Coefficient  Atom+Function  
  ----- ------------  ---------------      ----- ------------  ---------------
     2     -0.673229  1 H  s                  4      0.659517  2 H  s          
     3      0.297840  2 H  s                  1     -0.279857  1 H  s          

 Vector    3  Occ=0.000000D+00  E= 0.000000D+00
              MO Center=  0.0D+00,  0.0D+00, -1.4D-02, r^2= 2.3D+00
   Bfn.  Coefficient  Atom+Function         Bfn.  Coefficient  Atom+Function  
  ----- ------------  ---------------      ----- ------------  ---------------
     4      1.091415  2 H  s                  2     -1.078160  1 H  s          
     1      0.924758  1 H  s                  3     -0.881980  2 H  s          

 Vector    4  Occ=0.000000D+00  E= 0.000000D+00
              MO Center=  0.0D+00,  0.0D+00,  2.3D-02, r^2= 1.8D+00
   Bfn.  Coefficient  Atom+Function         Bfn.  Coefficient  Atom+Function  
  ----- ------------  ---------------      ----- ------------  ---------------
     3      0.928976  2 H  s                  1      0.912378  1 H  s          
     4     -0.716203  2 H  s                  2     -0.676426  1 H  s          


 Task  times  cpu:       14.4s     wall:       21.5s
 Summary of allocated global arrays
-----------------------------------
  No active global arrays



                         GA Statistics for process    0
                         ------------------------------

       create   destroy   get      put      acc     scatter   gather  read&inc
calls:   44       44     8.15e+06 2.82e+04 2.23e+04    0        0       11     
number of processes/call 1.00e+00 1.00e+00 1.00e+00 0.00e+00 0.00e+00
bytes total:             1.05e+09 4.99e+06 3.56e+06 0.00e+00 0.00e+00 8.80e+01
bytes remote:            0.00e+00 0.00e+00 0.00e+00 0.00e+00 0.00e+00 0.00e+00
Max memory consumed for GA by this process: 10624 bytes
MA_summarize_allocated_blocks: starting scan ...
MA_summarize_allocated_blocks: scan completed: 0 heap blocks, 0 stack blocks
MA usage statistics:

	allocation statistics:
					      heap	     stack
					      ----	     -----
	current number of blocks	         0	         0
	maximum number of blocks	        19	        17
	current total bytes		         0	         0
	maximum total bytes		   3204344	  22508664
	maximum total K-bytes		      3205	     22509
	maximum total M-bytes		         4	        23


                                NWChem Input Module
                                -------------------





                                     CITATION
                                     --------
                Please cite the following reference when publishing
                           results obtained with NWChem:

                 M. Valiev, E.J. Bylaska, N. Govind, K. Kowalski,
              T.P. Straatsma, H.J.J. van Dam, D. Wang, J. Nieplocha,
                        E. Apra, T.L. Windus, W.A. de Jong
                 "NWChem: a comprehensive and scalable open-source
                  solution for large scale molecular simulations"
                      Comput. Phys. Commun. 181, 1477 (2010)
                           doi:10.1016/j.cpc.2010.04.018

                                      AUTHORS
                                      -------
          E. Apra, E. J. Bylaska, W. A. de Jong, N. Govind, K. Kowalski,
       T. P. Straatsma, M. Valiev, H. J. J. van Dam, D. Wang, T. L. Windus,
        J. Hammond, J. Autschbach, K. Bhaskaran-Nair, J. Brabec, K. Lopata,
    S. A. Fischer, S. Krishnamoorthy, M. Jacquelin, W. Ma, M. Klemm, O. Villa,
      Y. Chen, V. Anisimov, F. Aquino, S. Hirata, M. T. Hackler, V. Konjkov,
      T. Risthaus, M. Malagoli, A. Marenich, A. Otero-de-la-Roza, J. Mullin,
        P. Nichols, R. Peverati, J. Pittner, Y. Zhao, P.-D. Fan, A. Fonari,
       M. Williamson, R. J. Harrison, J. R. Rehr, M. Dupuis, D. Silverstein,
    D. M. A. Smith, J. Nieplocha, V. Tipparaju, M. Krishnan, B. E. Van Kuiken,
        A. Vazquez-Mayagoitia, L. Jensen, M. Swart, Q. Wu, T. Van Voorhis,
     A. A. Auer, M. Nooijen, L. D. Crosby, E. Brown, G. Cisneros, G. I. Fann,
   H. Fruchtl, J. Garza, K. Hirao, R. A. Kendall, J. A. Nichols, K. Tsemekhman,
    K. Wolinski, J. Anchell, D. E. Bernholdt, P. Borowski, T. Clark, D. Clerc,
   H. Dachsel, M. J. O. Deegan, K. Dyall, D. Elwood, E. Glendening, M. Gutowski,
   A. C. Hess, J. Jaffe, B. G. Johnson, J. Ju, R. Kobayashi, R. Kutteh, Z. Lin,
   R. Littlefield, X. Long, B. Meng, T. Nakajima, S. Niu, L. Pollack, M. Rosing,
   K. Glaesemann, G. Sandrone, M. Stave, H. Taylor, G. Thomas, J. H. van Lenthe,
                               A. T. Wong, Z. Zhang.

 Total times  cpu:       14.4s     wall:       21.5s
