 argument  1 = input-wf.nw



============================== echo of input deck ==============================
echo
start wfn1_dat
geometry units au noautoz
  H 0 0 -5.54434600000000000000
  H 0 0  5.54434600000000000000
  symmetry cs
end
basis
  H library 6-31g
end
set wfn1:input_vectors "atomic"
set wfn1:solver "monte-carlo"
set wfn1:print_error F
set wfn1:t_initial 0.1
set wfn1:nopen 2
#set wfn1:corr_expr "wfn1_mx"
set wfn1:corr_expr "wfn1c"
set wfn1:t_bath 0.0
set wfn1:maxit  20000
task wfn1 energy
================================================================================


                                         
                                         


              Northwest Computational Chemistry Package (NWChem) 6.8
              ------------------------------------------------------


                    Environmental Molecular Sciences Laboratory
                       Pacific Northwest National Laboratory
                                Richland, WA 99352

                              Copyright (c) 1994-2015
                       Pacific Northwest National Laboratory
                            Battelle Memorial Institute

             NWChem is an open-source computational chemistry package
                        distributed under the terms of the
                      Educational Community License (ECL) 2.0
             A copy of the license is included with this distribution
                              in the LICENSE.TXT file

                                  ACKNOWLEDGMENT
                                  --------------

            This software and its documentation were developed at the
            EMSL at Pacific Northwest National Laboratory, a multiprogram
            national laboratory, operated for the U.S. Department of Energy
            by Battelle under Contract Number DE-AC05-76RL01830. Support
            for this work was provided by the Department of Energy Office
            of Biological and Environmental Research, Office of Basic
            Energy Sciences, and the Office of Advanced Scientific Computing.


           Job information
           ---------------

    hostname        = erato
    program         = ../../../bin/LINUX64/nwchem
    date            = Sat Mar  6 01:52:06 2021

    compiled        = Sat_Mar_06_01:07:04_2021
    source          = /home/hvandam/nwchem-1-wfn1
    nwchem branch   = Development
    nwchem revision = nwchem_on_git-124-gad72d19fff205e319ffbbf2bca37a04ded6ad57b
    ga revision     = nwchem_on_git-124-gad72d19
    use scalapack   = F
    input           = input-wf.nw
    prefix          = wfn1_dat.
    data base       = ./wfn1_dat.db
    status          = startup
    nproc           =        1
    time left       =     -1s



           Memory information
           ------------------

    heap     =   13107196 doubles =    100.0 Mbytes
    stack    =   13107201 doubles =    100.0 Mbytes
    global   =   26214400 doubles =    200.0 Mbytes (distinct from heap & stack)
    total    =   52428797 doubles =    400.0 Mbytes
    verify   = yes
    hardfail = no 


           Directory information
           ---------------------

  0 permanent = .
  0 scratch   = .




                                NWChem Input Module
                                -------------------


 Turning off AUTOSYM since
 SYMMETRY directive was detected!



                             Geometry "geometry" -> ""
                             -------------------------

 Output coordinates in a.u. (scale by  1.000000000 to convert to a.u.)

  No.       Tag          Charge          X              Y              Z
 ---- ---------------- ---------- -------------- -------------- --------------
    1 H                    1.0000     0.00000000     0.00000000    -5.54434600
    2 H                    1.0000     0.00000000     0.00000000     5.54434600

      Atomic Mass 
      ----------- 

      H                  1.007825


 Effective nuclear repulsion energy (a.u.)       0.0901819619

            Nuclear Dipole moment (a.u.) 
            ----------------------------
        X                 Y               Z
 ---------------- ---------------- ----------------
     0.0000000000     0.0000000000     0.0000000000

      Symmetry information
      --------------------

 Group name             Cs        
 Group number              2
 Group order               2
 No. of unique centers     1

      Symmetry unique atoms

     1


            XYZ format geometry
            -------------------
     2
 geometry
 H                     0.00000000     0.00000000    -2.93394176
 H                     0.00000000     0.00000000     2.93394176

                      Basis "ao basis" -> "" (cartesian)
                      -----
  H (Hydrogen)
  ------------
            Exponent  Coefficients 
       -------------- ---------------------------------------------------------
  1 S  1.87311370E+01  0.033495
  1 S  2.82539370E+00  0.234727
  1 S  6.40121700E-01  0.813757

  2 S  1.61277800E-01  1.000000



 Summary of "ao basis" -> "" (cartesian)
 ------------------------------------------------------------------------------
       Tag                 Description            Shells   Functions and Types
 ---------------- ------------------------------  ------  ---------------------
 H                           6-31g                   2        2   2s



                                NWChem WFN1 Module
                                ------------------



          No. of electrons :     2
           Alpha electrons :     2
            Beta electrons :     0
          Charge           :     0
          Spin multiplicity:     3

 HvD: wfn1_inpdft
 HvD: nquad_task =                     1
 HvD: iangquad   =                     0
 HvD: gridtype   = user      
 HvD: leb        =  T
 HvD: radgrid    = murakn    
 HvD: trunc_neigh=  T
 HvD: lssw       =  T
 HvD: whichssw   = erf1    
 HvD: mxnrad     =                     0
 HvD: mxnang     =                     0
 HVD: wfn1: movecs_in  = atomic                                                                                                                                                                                                                                                          
 HVD: wfn1: movecs_out = ./wfn1_dat.movecs                                                                                                                                                                                                                                               

      Superposition of Atomic Density Guess
      -------------------------------------

 Sum of atomic energies:          -0.99646508

      Non-variational initial energy
      ------------------------------

 Total energy =      -0.682110
 1-e energy   =      -1.176830
 2-e energy   =       0.404538
 HOMO         =      -0.191223
 LUMO         =      -0.191149

 iteration              energy           error
 ---------              ------           -----
         0         -0.98469734        0.080000
         1         -0.98489645        0.080000
         2         -0.98525711        0.080000
         3         -0.98537181        0.080000
         4         -0.98692923        0.080000
         5         -0.98702999        0.080000
         6         -0.98879949        0.080000
         7         -0.98914867        0.080000
         8         -0.98926901        0.080000
         9         -0.98976564        0.080000
        10         -0.99118273        0.080000
        11         -0.99130957        0.080000
        12         -0.99191616        0.080000
        13         -0.99227474        0.080000
        14         -0.99255601        0.080000
        15         -0.99298578        0.080000
        16         -0.99355515        0.080000
        17         -0.99362169        0.080000
        18         -0.99430009        0.080000
        19         -0.99452337        0.080000
        20         -0.99478935        0.080000
        21         -0.99494630        0.080000
        22         -0.99508691        0.080000
        23         -0.99524817        0.080000
        24         -0.99531264        0.080000
        25         -0.99572428        0.080000
        26         -0.99589918        0.080000
        27         -0.99595997        0.080000
        28         -0.99596581        0.080000
        29         -0.99597732        0.080000
        30         -0.99604287        0.080000
        31         -0.99622145        0.080000
        32         -0.99627889        0.067247
        33         -0.99628152        0.062258
        34         -0.99631378        0.062258
        35         -0.99631743        0.044878
        36         -0.99632382        0.044878
        37         -0.99633510        0.044878
        38         -0.99635356        0.044878
        39         -0.99635946        0.044878
        40         -0.99638327        0.039218
        41         -0.99641717        0.039218
        42         -0.99642800        0.036309
        43         -0.99643433        0.031730
        44         -0.99643642        0.031730
        45         -0.99644385        0.031730
        46         -0.99644702        0.031730
        47         -0.99644733        0.031730
        48         -0.99644793        0.031730
        49         -0.99644854        0.019233
        50         -0.99644869        0.019233
        51         -0.99645350        0.018152
        52         -0.99645434        0.018152
        53         -0.99645499        0.018152
        54         -0.99645766        0.018152
        55         -0.99645886        0.018152
        56         -0.99645929        0.018152
        57         -0.99646037        0.018152
        58         -0.99646185        0.018152
        59         -0.99646325        0.011217
        60         -0.99646325        0.009251
        61         -0.99646344        0.007930
        62         -0.99646371        0.006798
        63         -0.99646416        0.005828
        64         -0.99646461        0.004996
        65         -0.99646464        0.004282
        66         -0.99646473        0.003671
        67         -0.99646479        0.003671
        68         -0.99646506        0.003671
        69         -0.99646508        0.003147
        70         -0.99646514        0.003147
        71         -0.99646550        0.002803
        72         -0.99646560        0.002450
        73         -0.99646562        0.002450
        74         -0.99646565        0.001766
        75         -0.99646568        0.001766
        76         -0.99646573        0.001766
        77         -0.99646573        0.001766
        78         -0.99646574        0.001543
        79         -0.99646576        0.001543
        80         -0.99646576        0.001543
        81         -0.99646578        0.001543
        82         -0.99646579        0.001179
        83         -0.99646579        0.001179
        84         -0.99646579        0.001179
        85         -0.99646580        0.001179
        86         -0.99646581        0.000636
        87         -0.99646581        0.000486
        88         -0.99646581        0.000417
        89         -0.99646581        0.000357
        90         -0.99646582        0.000357
        91         -0.99646582        0.000357
        92         -0.99646582        0.000306
        93         -0.99646582        0.000306
        94         -0.99646582        0.000229
        95         -0.99646582        0.000229
        96         -0.99646582        0.000229
        97         -0.99646582        0.000229
        98         -0.99646582        0.000229
        99         -0.99646582        0.000229
       100         -0.99646582        0.000142
       101         -0.99646582        0.000142
       102         -0.99646582        0.000142
       103         -0.99646582        0.000142
       104         -0.99646582        0.000112
       105         -0.99646582        0.000112
       106         -0.99646582        0.000102
       107         -0.99646582        0.000089
       108         -0.99646582        0.000089
       109         -0.99646582        0.000089
       110         -0.99646582        0.000089
       111         -0.99646582        0.000077
       112         -0.99646582        0.000077
       113         -0.99646582        0.000041
       114         -0.99646582        0.000036
       115         -0.99646582        0.000036
       116         -0.99646582        0.000036
       117         -0.99646582        0.000036
       118         -0.99646582        0.000036
       119         -0.99646582        0.000036
       120         -0.99646582        0.000026
       121         -0.99646582        0.000021
       122         -0.99646582        0.000021
       123         -0.99646582        0.000021
       124         -0.99646582        0.000021
       125         -0.99646582        0.000011
       126         -0.99646582        0.000011
       127         -0.99646582        0.000011
       128         -0.99646582        0.000008
       129         -0.99646582        0.000008
       130         -0.99646582        0.000006
       131         -0.99646582        0.000006
       132         -0.99646582        0.000004
       133         -0.99646582        0.000004
       134         -0.99646582        0.000004
       135         -0.99646582        0.000004
       136         -0.99646582        0.000004
       137         -0.99646582        0.000003
       138         -0.99646582        0.000003
       139         -0.99646582        0.000003
       140         -0.99646582        0.000003
       141         -0.99646582        0.000003
       142         -0.99646582        0.000003
       143         -0.99646582        0.000003
       144         -0.99646582        0.000002
       145         -0.99646582        0.000002
       146         -0.99646582        0.000002
       147         -0.99646582        0.000001
       148         -0.99646582        0.000001
       149         -0.99646582        0.000001
       150         -0.99646582        0.000001
       151         -0.99646582        0.000001
       152         -0.99646582        0.000001
       153         -0.99646582        0.000001
       154         -0.99646582        0.000001
       155         -0.99646582        0.000001
       156         -0.99646582        0.000001

 Reached Convergence

 WFN1                     :
 --------------------------
 Total WFN1 energy  =          -0.9964658229
 1-Electron energy  =          -1.1768297476
 2-Electron energy  =           0.0901819628
 Correlation energy =           0.0000000000
 DFT XC energy      =           0.0000000000
 Entropy energy     =           0.0000000000
 Nuclear energy     =           0.0901819619

 conventional Hartree-Fock:
 --------------------------
 Total SCF energy  =          -0.9964658229
 2-Electron energy =           0.0901819628

                WFN1 Final Natural orbital energies and occupations
                ---------------------------------------------------

              Alpha       Beta            Alpha       Beta  
            --------    --------        --------    --------
       1      0.0000      0.0000          1.0000      0.0000
       2      0.0000      0.0000          1.0000      0.0000
       3      0.0000      0.0000          0.0000      0.0000
       4      0.0000      0.0000          0.0000      0.0000

             WFN1 Final Correlation function energies and occupations
             --------------------------------------------------------

              Alpha       Beta            Alpha       Beta  
            --------    --------        --------    --------
       1      0.0000      0.0000          1.0000      0.0000
       2      0.0000      0.0000          1.0000      0.0000
       3      0.0000      0.0000          0.0000      0.0000
       4      0.0000      0.0000          0.0000      0.0000

                WFN1 Final alpha-alpha 2-matrix occupation numbers
                --------------------------------------------------


 global array: g_momo1[1:4,1:4],  handle: -990 

            1           2           3           4  
       ----------- ----------- ----------- -----------
   1       0.00000     1.00000     0.00000     0.00000
   2       1.00000     0.00000     0.00000     0.00000
   3       0.00000     0.00000     0.00000     0.00000
   4       0.00000     0.00000     0.00000     0.00000

                 WFN1 Final beta-beta 2-matrix occupation numbers
                 ------------------------------------------------


 global array: g_momo2[1:4,1:4],  handle: -989 

            1           2           3           4  
       ----------- ----------- ----------- -----------
   1       0.00000     0.00000     0.00000     0.00000
   2       0.00000     0.00000     0.00000     0.00000
   3       0.00000     0.00000     0.00000     0.00000
   4       0.00000     0.00000     0.00000     0.00000

                  WFN1 Final alpha Correlation Function Analysis
                  ----------------------------------------------


 global array: Ca[1:4,1:4],  handle: -981 

                     1                       2                       3                       4  
       ----------------------- ----------------------- ----------------------- -----------------------
   1      -0.70515,    0.20827    -0.64997,    0.19215     0.00000,   -0.00000    -0.00000,    0.00000
   2       0.14450,   -0.66220    -0.15658,    0.71840     0.00000,   -0.00000     0.00000,    0.00000
   3       0.00000,    0.00000    -0.00000,   -0.00000     0.55429,   -0.47803     0.51729,   -0.44347
   4       0.00000,   -0.00000     0.00000,   -0.00000     0.52601,   -0.43309    -0.56643,    0.46358

                   WFN1 Final beta Correlation Function Analysis
                   ---------------------------------------------


 global array: Cb[1:4,1:4],  handle: -980 

                     1                       2                       3                       4  
       ----------------------- ----------------------- ----------------------- -----------------------
   1      -0.66381,    0.22175    -0.67637,    0.22342    -0.01659,    0.04762     0.01157,    0.01072
   2       0.17341,   -0.68738    -0.17331,    0.67847    -0.03106,   -0.05571     0.04283,    0.03421
   3      -0.03077,   -0.00210    -0.02090,   -0.02296     0.51424,   -0.45184     0.54254,   -0.48491
   4      -0.08051,   -0.01374     0.03193,    0.01609     0.56851,   -0.44898    -0.53333,    0.42757

                     WFN1 Final Alpha Natural Orbital Analysis
                     -----------------------------------------

 Vector    1  Occ=1.000000D+00  E= 0.000000D+00
              MO Center=  0.0D+00,  0.0D+00, -1.2D-01, r^2= 9.4D+00
   Bfn.  Coefficient  Atom+Function         Bfn.  Coefficient  Atom+Function  
  ----- ------------  ---------------      ----- ------------  ---------------
     2     -0.479771  1 H  s                  4     -0.461171  2 H  s          
     1     -0.308125  1 H  s                  3     -0.296176  2 H  s          

 Vector    2  Occ=1.000000D+00  E= 0.000000D+00
              MO Center=  0.0D+00,  0.0D+00,  1.2D-01, r^2= 9.4D+00
   Bfn.  Coefficient  Atom+Function         Bfn.  Coefficient  Atom+Function  
  ----- ------------  ---------------      ----- ------------  ---------------
     4     -0.479734  2 H  s                  2      0.461132  1 H  s          
     3     -0.308183  2 H  s                  1      0.296236  1 H  s          

 Vector    3  Occ=4.355143D-15  E= 0.000000D+00
              MO Center=  0.0D+00,  0.0D+00, -3.3D-01, r^2= 9.7D+00
   Bfn.  Coefficient  Atom+Function         Bfn.  Coefficient  Atom+Function  
  ----- ------------  ---------------      ----- ------------  ---------------
     1     -0.937570  1 H  s                  2      0.856984  1 H  s          
     3     -0.838444  2 H  s                  4      0.766368  2 H  s          

 Vector    4  Occ=9.890036D-15  E= 0.000000D+00
              MO Center=  0.0D+00,  0.0D+00,  3.3D-01, r^2= 9.7D+00
   Bfn.  Coefficient  Atom+Function         Bfn.  Coefficient  Atom+Function  
  ----- ------------  ---------------      ----- ------------  ---------------
     3      0.937586  2 H  s                  4     -0.857094  2 H  s          
     1     -0.838462  1 H  s                  2      0.766491  1 H  s          


                     WFN1 Final Beta Natural Orbital Analysis
                     ----------------------------------------

 Vector    1  Occ=0.000000D+00  E= 0.000000D+00
              MO Center=  0.0D+00,  0.0D+00, -3.9D-01, r^2= 9.4D+00
   Bfn.  Coefficient  Atom+Function         Bfn.  Coefficient  Atom+Function  
  ----- ------------  ---------------      ----- ------------  ---------------
     2     -0.568223  1 H  s                  4     -0.504680  2 H  s          
     1     -0.245815  1 H  s                  3     -0.204844  2 H  s          

 Vector    2  Occ=0.000000D+00  E= 0.000000D+00
              MO Center=  0.0D+00,  0.0D+00,  3.9D-01, r^2= 9.4D+00
   Bfn.  Coefficient  Atom+Function         Bfn.  Coefficient  Atom+Function  
  ----- ------------  ---------------      ----- ------------  ---------------
     2      0.564110  1 H  s                  4     -0.529560  2 H  s          
     3     -0.289241  2 H  s                  1      0.132590  1 H  s          

 Vector    3  Occ=0.000000D+00  E= 0.000000D+00
              MO Center=  0.0D+00,  0.0D+00,  1.4D-01, r^2= 9.7D+00
   Bfn.  Coefficient  Atom+Function         Bfn.  Coefficient  Atom+Function  
  ----- ------------  ---------------      ----- ------------  ---------------
     3     -0.913956  2 H  s                  1     -0.902733  1 H  s          
     4      0.825419  2 H  s                  2      0.715740  1 H  s          

 Vector    4  Occ=0.000000D+00  E= 0.000000D+00
              MO Center=  0.0D+00,  0.0D+00, -1.3D-01, r^2= 9.6D+00
   Bfn.  Coefficient  Atom+Function         Bfn.  Coefficient  Atom+Function  
  ----- ------------  ---------------      ----- ------------  ---------------
     1     -0.933713  1 H  s                  3      0.896558  2 H  s          
     2      0.781903  1 H  s                  4     -0.740474  2 H  s          


 Task  times  cpu:       14.5s     wall:       22.8s
 Summary of allocated global arrays
-----------------------------------
  No active global arrays



                         GA Statistics for process    0
                         ------------------------------

       create   destroy   get      put      acc     scatter   gather  read&inc
calls:   44       44     8.79e+06 3.04e+04 2.41e+04    0        0       10     
number of processes/call 1.00e+00 1.00e+00 1.00e+00 0.00e+00 0.00e+00
bytes total:             1.13e+09 5.38e+06 3.84e+06 0.00e+00 0.00e+00 8.00e+01
bytes remote:            0.00e+00 0.00e+00 0.00e+00 0.00e+00 0.00e+00 0.00e+00
Max memory consumed for GA by this process: 10624 bytes
MA_summarize_allocated_blocks: starting scan ...
MA_summarize_allocated_blocks: scan completed: 0 heap blocks, 0 stack blocks
MA usage statistics:

	allocation statistics:
					      heap	     stack
					      ----	     -----
	current number of blocks	         0	         0
	maximum number of blocks	        19	        17
	current total bytes		         0	         0
	maximum total bytes		   3204360	  22508648
	maximum total K-bytes		      3205	     22509
	maximum total M-bytes		         4	        23


                                NWChem Input Module
                                -------------------





                                     CITATION
                                     --------
                Please cite the following reference when publishing
                           results obtained with NWChem:

                 M. Valiev, E.J. Bylaska, N. Govind, K. Kowalski,
              T.P. Straatsma, H.J.J. van Dam, D. Wang, J. Nieplocha,
                        E. Apra, T.L. Windus, W.A. de Jong
                 "NWChem: a comprehensive and scalable open-source
                  solution for large scale molecular simulations"
                      Comput. Phys. Commun. 181, 1477 (2010)
                           doi:10.1016/j.cpc.2010.04.018

                                      AUTHORS
                                      -------
          E. Apra, E. J. Bylaska, W. A. de Jong, N. Govind, K. Kowalski,
       T. P. Straatsma, M. Valiev, H. J. J. van Dam, D. Wang, T. L. Windus,
        J. Hammond, J. Autschbach, K. Bhaskaran-Nair, J. Brabec, K. Lopata,
    S. A. Fischer, S. Krishnamoorthy, M. Jacquelin, W. Ma, M. Klemm, O. Villa,
      Y. Chen, V. Anisimov, F. Aquino, S. Hirata, M. T. Hackler, V. Konjkov,
      T. Risthaus, M. Malagoli, A. Marenich, A. Otero-de-la-Roza, J. Mullin,
        P. Nichols, R. Peverati, J. Pittner, Y. Zhao, P.-D. Fan, A. Fonari,
       M. Williamson, R. J. Harrison, J. R. Rehr, M. Dupuis, D. Silverstein,
    D. M. A. Smith, J. Nieplocha, V. Tipparaju, M. Krishnan, B. E. Van Kuiken,
        A. Vazquez-Mayagoitia, L. Jensen, M. Swart, Q. Wu, T. Van Voorhis,
     A. A. Auer, M. Nooijen, L. D. Crosby, E. Brown, G. Cisneros, G. I. Fann,
   H. Fruchtl, J. Garza, K. Hirao, R. A. Kendall, J. A. Nichols, K. Tsemekhman,
    K. Wolinski, J. Anchell, D. E. Bernholdt, P. Borowski, T. Clark, D. Clerc,
   H. Dachsel, M. J. O. Deegan, K. Dyall, D. Elwood, E. Glendening, M. Gutowski,
   A. C. Hess, J. Jaffe, B. G. Johnson, J. Ju, R. Kobayashi, R. Kutteh, Z. Lin,
   R. Littlefield, X. Long, B. Meng, T. Nakajima, S. Niu, L. Pollack, M. Rosing,
   K. Glaesemann, G. Sandrone, M. Stave, H. Taylor, G. Thomas, J. H. van Lenthe,
                               A. T. Wong, Z. Zhang.

 Total times  cpu:       14.6s     wall:       22.9s
