 argument  1 = input-wf.nw



============================== echo of input deck ==============================
echo
start wfn1_dat
geometry units au noautoz
  H 0 0 -2.14434600000000000000
  H 0 0  2.14434600000000000000
  symmetry cs
end
basis
  H library 6-31g
end
set wfn1:input_vectors "atomic"
set wfn1:solver "monte-carlo"
set wfn1:print_error F
set wfn1:t_initial 0.1
set wfn1:nopen 2
#set wfn1:corr_expr "wfn1_mx"
set wfn1:corr_expr "wfn1c"
set wfn1:t_bath 0.0
set wfn1:maxit  20000
task wfn1 energy
================================================================================


                                         
                                         


              Northwest Computational Chemistry Package (NWChem) 6.8
              ------------------------------------------------------


                    Environmental Molecular Sciences Laboratory
                       Pacific Northwest National Laboratory
                                Richland, WA 99352

                              Copyright (c) 1994-2015
                       Pacific Northwest National Laboratory
                            Battelle Memorial Institute

             NWChem is an open-source computational chemistry package
                        distributed under the terms of the
                      Educational Community License (ECL) 2.0
             A copy of the license is included with this distribution
                              in the LICENSE.TXT file

                                  ACKNOWLEDGMENT
                                  --------------

            This software and its documentation were developed at the
            EMSL at Pacific Northwest National Laboratory, a multiprogram
            national laboratory, operated for the U.S. Department of Energy
            by Battelle under Contract Number DE-AC05-76RL01830. Support
            for this work was provided by the Department of Energy Office
            of Biological and Environmental Research, Office of Basic
            Energy Sciences, and the Office of Advanced Scientific Computing.


           Job information
           ---------------

    hostname        = erato
    program         = ../../../bin/LINUX64/nwchem
    date            = Sat Mar  6 01:28:21 2021

    compiled        = Sat_Mar_06_01:07:04_2021
    source          = /home/hvandam/nwchem-1-wfn1
    nwchem branch   = Development
    nwchem revision = nwchem_on_git-124-gad72d19fff205e319ffbbf2bca37a04ded6ad57b
    ga revision     = nwchem_on_git-124-gad72d19
    use scalapack   = F
    input           = input-wf.nw
    prefix          = wfn1_dat.
    data base       = ./wfn1_dat.db
    status          = startup
    nproc           =        1
    time left       =     -1s



           Memory information
           ------------------

    heap     =   13107196 doubles =    100.0 Mbytes
    stack    =   13107201 doubles =    100.0 Mbytes
    global   =   26214400 doubles =    200.0 Mbytes (distinct from heap & stack)
    total    =   52428797 doubles =    400.0 Mbytes
    verify   = yes
    hardfail = no 


           Directory information
           ---------------------

  0 permanent = .
  0 scratch   = .




                                NWChem Input Module
                                -------------------


 Turning off AUTOSYM since
 SYMMETRY directive was detected!



                             Geometry "geometry" -> ""
                             -------------------------

 Output coordinates in a.u. (scale by  1.000000000 to convert to a.u.)

  No.       Tag          Charge          X              Y              Z
 ---- ---------------- ---------- -------------- -------------- --------------
    1 H                    1.0000     0.00000000     0.00000000    -2.14434600
    2 H                    1.0000     0.00000000     0.00000000     2.14434600

      Atomic Mass 
      ----------- 

      H                  1.007825


 Effective nuclear repulsion energy (a.u.)       0.2331713259

            Nuclear Dipole moment (a.u.) 
            ----------------------------
        X                 Y               Z
 ---------------- ---------------- ----------------
     0.0000000000     0.0000000000     0.0000000000

      Symmetry information
      --------------------

 Group name             Cs        
 Group number              2
 Group order               2
 No. of unique centers     1

      Symmetry unique atoms

     1


            XYZ format geometry
            -------------------
     2
 geometry
 H                     0.00000000     0.00000000    -1.13473912
 H                     0.00000000     0.00000000     1.13473912

                      Basis "ao basis" -> "" (cartesian)
                      -----
  H (Hydrogen)
  ------------
            Exponent  Coefficients 
       -------------- ---------------------------------------------------------
  1 S  1.87311370E+01  0.033495
  1 S  2.82539370E+00  0.234727
  1 S  6.40121700E-01  0.813757

  2 S  1.61277800E-01  1.000000



 Summary of "ao basis" -> "" (cartesian)
 ------------------------------------------------------------------------------
       Tag                 Description            Shells   Functions and Types
 ---------------- ------------------------------  ------  ---------------------
 H                           6-31g                   2        2   2s



                                NWChem WFN1 Module
                                ------------------



          No. of electrons :     2
           Alpha electrons :     2
            Beta electrons :     0
          Charge           :     0
          Spin multiplicity:     3

 HvD: wfn1_inpdft
 HvD: nquad_task =                     1
 HvD: iangquad   =                     0
 HvD: gridtype   = user      
 HvD: leb        =  T
 HvD: radgrid    = murakn    
 HvD: trunc_neigh=  T
 HvD: lssw       =  T
 HvD: whichssw   = erf1    
 HvD: mxnrad     =                     0
 HvD: mxnang     =                     0
 HVD: wfn1: movecs_in  = atomic                                                                                                                                                                                                                                                          
 HVD: wfn1: movecs_out = ./wfn1_dat.movecs                                                                                                                                                                                                                                               

      Superposition of Atomic Density Guess
      -------------------------------------

 Sum of atomic energies:          -0.99646508

      Non-variational initial energy
      ------------------------------

 Total energy =      -0.687237
 1-e energy   =      -1.462690
 2-e energy   =       0.542282
 HOMO         =      -0.244069
 LUMO         =      -0.133099

 iteration              energy           error
 ---------              ------           -----
         0         -0.98009628        0.080000
         1         -0.98245293        0.080000
         2         -0.98264128        0.080000
         3         -0.98347213        0.080000
         4         -0.98370095        0.080000
         5         -0.98459332        0.080000
         6         -0.98471299        0.080000
         7         -0.98486583        0.080000
         8         -0.98507782        0.080000
         9         -0.98623115        0.080000
        10         -0.98821357        0.080000
        11         -0.98842252        0.080000
        12         -0.98845604        0.080000
        13         -0.98906147        0.080000
        14         -0.98926116        0.080000
        15         -0.98993563        0.080000
        16         -0.98996368        0.080000
        17         -0.99031418        0.080000
        18         -0.99052307        0.080000
        19         -0.99076199        0.080000
        20         -0.99081334        0.080000
        21         -0.99112812        0.080000
        22         -0.99116513        0.080000
        23         -0.99151600        0.080000
        24         -0.99152684        0.074046
        25         -0.99166291        0.074046
        26         -0.99166375        0.053376
        27         -0.99169989        0.053376
        28         -0.99174084        0.053376
        29         -0.99174090        0.027735
        30         -0.99174236        0.027735
        31         -0.99174503        0.027735
        32         -0.99174774        0.014691
        33         -0.99174927        0.014691
        34         -0.99174969        0.014691
        35         -0.99175105        0.013088
        36         -0.99175248        0.013088
        37         -0.99175261        0.008245
        38         -0.99175307        0.008245
        39         -0.99175309        0.008245
        40         -0.99175312        0.007205
        41         -0.99175357        0.006419
        42         -0.99175366        0.006419
        43         -0.99175397        0.006419
        44         -0.99175414        0.003891
        45         -0.99175460        0.003891
        46         -0.99175463        0.002915
        47         -0.99175465        0.002915
        48         -0.99175476        0.002915
        49         -0.99175476        0.002915
        50         -0.99175483        0.002547
        51         -0.99175497        0.002547
        52         -0.99175504        0.002547
        53         -0.99175508        0.002547
        54         -0.99175511        0.002547
        55         -0.99175527        0.002313
        56         -0.99175533        0.002141
        57         -0.99175537        0.002141
        58         -0.99175539        0.002141
        59         -0.99175542        0.001836
        60         -0.99175544        0.001836
        61         -0.99175545        0.000972
        62         -0.99175545        0.000715
        63         -0.99175546        0.000715
        64         -0.99175546        0.000715
        65         -0.99175546        0.000715
        66         -0.99175547        0.000613
        67         -0.99175547        0.000468
        68         -0.99175547        0.000468
        69         -0.99175547        0.000337
        70         -0.99175547        0.000337
        71         -0.99175547        0.000248
        72         -0.99175547        0.000248
        73         -0.99175548        0.000217
        74         -0.99175548        0.000217
        75         -0.99175548        0.000217
        76         -0.99175548        0.000159
        77         -0.99175548        0.000100
        78         -0.99175548        0.000100
        79         -0.99175548        0.000086
        80         -0.99175548        0.000075
        81         -0.99175548        0.000075
        82         -0.99175548        0.000064
        83         -0.99175548        0.000064
        84         -0.99175548        0.000064
        85         -0.99175548        0.000056
        86         -0.99175548        0.000050
        87         -0.99175548        0.000050
        88         -0.99175548        0.000050
        89         -0.99175548        0.000050
        90         -0.99175548        0.000030
        91         -0.99175548        0.000030
        92         -0.99175548        0.000030
        93         -0.99175548        0.000020
        94         -0.99175548        0.000020
        95         -0.99175548        0.000020
        96         -0.99175548        0.000020
        97         -0.99175548        0.000017
        98         -0.99175548        0.000017
        99         -0.99175548        0.000017
       100         -0.99175548        0.000016
       101         -0.99175548        0.000016
       102         -0.99175548        0.000010
       103         -0.99175548        0.000009
       104         -0.99175548        0.000007
       105         -0.99175548        0.000007
       106         -0.99175548        0.000007
       107         -0.99175548        0.000004
       108         -0.99175548        0.000003
       109         -0.99175548        0.000003
       110         -0.99175548        0.000003
       111         -0.99175548        0.000003
       112         -0.99175548        0.000003
       113         -0.99175548        0.000003
       114         -0.99175548        0.000003
       115         -0.99175548        0.000002
       116         -0.99175548        0.000002
       117         -0.99175548        0.000002
       118         -0.99175548        0.000001
       119         -0.99175548        0.000001
       120         -0.99175548        0.000001
       121         -0.99175548        0.000001
       122         -0.99175548        0.000001
       123         -0.99175548        0.000001
       124         -0.99175548        0.000001

 Reached Convergence

 WFN1                     :
 --------------------------
 Total WFN1 energy  =          -0.9917554770
 1-Electron energy  =          -1.4521681736
 2-Electron energy  =           0.2272413707
 Correlation energy =           0.0000000000
 DFT XC energy      =           0.0000000000
 Entropy energy     =           0.0000000000
 Nuclear energy     =           0.2331713259

 conventional Hartree-Fock:
 --------------------------
 Total SCF energy  =          -0.9917554770
 2-Electron energy =           0.2272413707

                WFN1 Final Natural orbital energies and occupations
                ---------------------------------------------------

              Alpha       Beta            Alpha       Beta  
            --------    --------        --------    --------
       1      0.0000      0.0000          1.0000      0.0000
       2      0.0000      0.0000          1.0000      0.0000
       3      0.0000      0.0000          0.0000      0.0000
       4      0.0000      0.0000          0.0000      0.0000

             WFN1 Final Correlation function energies and occupations
             --------------------------------------------------------

              Alpha       Beta            Alpha       Beta  
            --------    --------        --------    --------
       1      0.0000      0.0000          1.0000      0.0000
       2      0.0000      0.0000          1.0000      0.0000
       3      0.0000      0.0000          0.0000      0.0000
       4      0.0000      0.0000          0.0000      0.0000

                WFN1 Final alpha-alpha 2-matrix occupation numbers
                --------------------------------------------------


 global array: g_momo1[1:4,1:4],  handle: -990 

            1           2           3           4  
       ----------- ----------- ----------- -----------
   1       0.00000     1.00000     0.00000     0.00000
   2       1.00000     0.00000     0.00000     0.00000
   3       0.00000     0.00000    -0.00000     0.00000
   4       0.00000     0.00000     0.00000     0.00000

                 WFN1 Final beta-beta 2-matrix occupation numbers
                 ------------------------------------------------


 global array: g_momo2[1:4,1:4],  handle: -989 

            1           2           3           4  
       ----------- ----------- ----------- -----------
   1       0.00000     0.00000     0.00000     0.00000
   2       0.00000     0.00000     0.00000     0.00000
   3       0.00000     0.00000     0.00000     0.00000
   4       0.00000     0.00000     0.00000     0.00000

                  WFN1 Final alpha Correlation Function Analysis
                  ----------------------------------------------


 global array: Ca[1:4,1:4],  handle: -981 

                     1                       2                       3                       4  
       ----------------------- ----------------------- ----------------------- -----------------------
   1       0.49497,    0.70900    -0.26757,   -0.42513     0.00000,    0.00000    -0.00000,    0.00000
   2      -0.15540,    0.47768    -0.30642,    0.80857     0.00000,    0.00000     0.00000,   -0.00000
   3       0.00000,    0.00000     0.00000,    0.00000    -0.46828,    0.69822     0.31304,   -0.44182
   4       0.00000,    0.00000    -0.00000,    0.00000    -0.52770,    0.12138    -0.82388,    0.16738

                   WFN1 Final beta Correlation Function Analysis
                   ---------------------------------------------


 global array: Cb[1:4,1:4],  handle: -980 

                     1                       2                       3                       4  
       ----------------------- ----------------------- ----------------------- -----------------------
   1       0.50283,    0.68263    -0.30834,   -0.42595    -0.00197,   -0.02161    -0.06359,    0.01264
   2      -0.19566,    0.48899    -0.32054,    0.78526     0.04788,    0.00998    -0.00277,    0.02871
   3       0.04051,    0.03738    -0.00201,    0.02151    -0.43047,    0.71721     0.26195,   -0.47769
   4      -0.02189,   -0.01647     0.03946,    0.04566    -0.54195,    0.06108    -0.82603,    0.12586

                     WFN1 Final Alpha Natural Orbital Analysis
                     -----------------------------------------

 Vector    1  Occ=1.000000D+00  E= 0.000000D+00
              MO Center=  0.0D+00,  0.0D+00,  3.5D-02, r^2= 2.0D+00
   Bfn.  Coefficient  Atom+Function         Bfn.  Coefficient  Atom+Function  
  ----- ------------  ---------------      ----- ------------  ---------------
     4     -0.442308  2 H  s                  2     -0.426657  1 H  s          
     3     -0.297497  2 H  s                  1     -0.287859  1 H  s          

 Vector    2  Occ=1.000000D+00  E= 0.000000D+00
              MO Center=  0.0D+00,  0.0D+00, -3.5D-02, r^2= 2.2D+00
   Bfn.  Coefficient  Atom+Function         Bfn.  Coefficient  Atom+Function  
  ----- ------------  ---------------      ----- ------------  ---------------
     2     -0.520966  1 H  s                  4      0.507745  2 H  s          
     1     -0.321179  1 H  s                  3      0.312273  2 H  s          

 Vector    3  Occ=6.081249D-15  E= 0.000000D+00
              MO Center=  0.0D+00,  0.0D+00, -1.9D-02, r^2= 2.3D+00
   Bfn.  Coefficient  Atom+Function         Bfn.  Coefficient  Atom+Function  
  ----- ------------  ---------------      ----- ------------  ---------------
     1     -0.886534  1 H  s                  3     -0.871662  2 H  s          
     2      0.723588  1 H  s                  4      0.707781  2 H  s          

 Vector    4  Occ=3.718562D-15  E= 0.000000D+00
              MO Center=  0.0D+00,  0.0D+00,  1.9D-02, r^2= 3.0D+00
   Bfn.  Coefficient  Atom+Function         Bfn.  Coefficient  Atom+Function  
  ----- ------------  ---------------      ----- ------------  ---------------
     4     -0.977836  2 H  s                  2      0.966197  1 H  s          
     3      0.921693  2 H  s                  1     -0.907397  1 H  s          


                     WFN1 Final Beta Natural Orbital Analysis
                     ----------------------------------------

 Vector    1  Occ=0.000000D+00  E= 0.000000D+00
              MO Center=  0.0D+00,  0.0D+00, -5.3D-02, r^2= 2.0D+00
   Bfn.  Coefficient  Atom+Function         Bfn.  Coefficient  Atom+Function  
  ----- ------------  ---------------      ----- ------------  ---------------
     2     -0.472600  1 H  s                  4     -0.472314  2 H  s          
     1     -0.264773  1 H  s                  3     -0.224381  2 H  s          

 Vector    2  Occ=0.000000D+00  E= 0.000000D+00
              MO Center=  0.0D+00,  0.0D+00,  5.6D-02, r^2= 2.4D+00
   Bfn.  Coefficient  Atom+Function         Bfn.  Coefficient  Atom+Function  
  ----- ------------  ---------------      ----- ------------  ---------------
     4      0.612592  2 H  s                  2     -0.594076  1 H  s          
     3      0.237917  2 H  s                  1     -0.220726  1 H  s          

 Vector    3  Occ=0.000000D+00  E= 0.000000D+00
              MO Center=  0.0D+00,  0.0D+00, -9.6D-03, r^2= 2.2D+00
   Bfn.  Coefficient  Atom+Function         Bfn.  Coefficient  Atom+Function  
  ----- ------------  ---------------      ----- ------------  ---------------
     1     -0.898135  1 H  s                  3     -0.889150  2 H  s          
     2      0.693063  1 H  s                  4      0.689304  2 H  s          

 Vector    4  Occ=0.000000D+00  E= 0.000000D+00
              MO Center=  0.0D+00,  0.0D+00,  6.9D-03, r^2= 2.8D+00
   Bfn.  Coefficient  Atom+Function         Bfn.  Coefficient  Atom+Function  
  ----- ------------  ---------------      ----- ------------  ---------------
     3      0.947519  2 H  s                  1     -0.932662  1 H  s          
     2      0.924091  1 H  s                  4     -0.914915  2 H  s          


 Task  times  cpu:       12.7s     wall:       19.0s
 Summary of allocated global arrays
-----------------------------------
  No active global arrays



                         GA Statistics for process    0
                         ------------------------------

       create   destroy   get      put      acc     scatter   gather  read&inc
calls:   44       44     7.35e+06 2.54e+04 2.01e+04    0        0       11     
number of processes/call 1.00e+00 1.00e+00 1.00e+00 0.00e+00 0.00e+00
bytes total:             9.44e+08 4.50e+06 3.21e+06 0.00e+00 0.00e+00 8.80e+01
bytes remote:            0.00e+00 0.00e+00 0.00e+00 0.00e+00 0.00e+00 0.00e+00
Max memory consumed for GA by this process: 10624 bytes
MA_summarize_allocated_blocks: starting scan ...
MA_summarize_allocated_blocks: scan completed: 0 heap blocks, 0 stack blocks
MA usage statistics:

	allocation statistics:
					      heap	     stack
					      ----	     -----
	current number of blocks	         0	         0
	maximum number of blocks	        19	        17
	current total bytes		         0	         0
	maximum total bytes		   3204360	  22508648
	maximum total K-bytes		      3205	     22509
	maximum total M-bytes		         4	        23


                                NWChem Input Module
                                -------------------





                                     CITATION
                                     --------
                Please cite the following reference when publishing
                           results obtained with NWChem:

                 M. Valiev, E.J. Bylaska, N. Govind, K. Kowalski,
              T.P. Straatsma, H.J.J. van Dam, D. Wang, J. Nieplocha,
                        E. Apra, T.L. Windus, W.A. de Jong
                 "NWChem: a comprehensive and scalable open-source
                  solution for large scale molecular simulations"
                      Comput. Phys. Commun. 181, 1477 (2010)
                           doi:10.1016/j.cpc.2010.04.018

                                      AUTHORS
                                      -------
          E. Apra, E. J. Bylaska, W. A. de Jong, N. Govind, K. Kowalski,
       T. P. Straatsma, M. Valiev, H. J. J. van Dam, D. Wang, T. L. Windus,
        J. Hammond, J. Autschbach, K. Bhaskaran-Nair, J. Brabec, K. Lopata,
    S. A. Fischer, S. Krishnamoorthy, M. Jacquelin, W. Ma, M. Klemm, O. Villa,
      Y. Chen, V. Anisimov, F. Aquino, S. Hirata, M. T. Hackler, V. Konjkov,
      T. Risthaus, M. Malagoli, A. Marenich, A. Otero-de-la-Roza, J. Mullin,
        P. Nichols, R. Peverati, J. Pittner, Y. Zhao, P.-D. Fan, A. Fonari,
       M. Williamson, R. J. Harrison, J. R. Rehr, M. Dupuis, D. Silverstein,
    D. M. A. Smith, J. Nieplocha, V. Tipparaju, M. Krishnan, B. E. Van Kuiken,
        A. Vazquez-Mayagoitia, L. Jensen, M. Swart, Q. Wu, T. Van Voorhis,
     A. A. Auer, M. Nooijen, L. D. Crosby, E. Brown, G. Cisneros, G. I. Fann,
   H. Fruchtl, J. Garza, K. Hirao, R. A. Kendall, J. A. Nichols, K. Tsemekhman,
    K. Wolinski, J. Anchell, D. E. Bernholdt, P. Borowski, T. Clark, D. Clerc,
   H. Dachsel, M. J. O. Deegan, K. Dyall, D. Elwood, E. Glendening, M. Gutowski,
   A. C. Hess, J. Jaffe, B. G. Johnson, J. Ju, R. Kobayashi, R. Kutteh, Z. Lin,
   R. Littlefield, X. Long, B. Meng, T. Nakajima, S. Niu, L. Pollack, M. Rosing,
   K. Glaesemann, G. Sandrone, M. Stave, H. Taylor, G. Thomas, J. H. van Lenthe,
                               A. T. Wong, Z. Zhang.

 Total times  cpu:       12.7s     wall:       19.0s
