 argument  1 = input-wf.nw



============================== echo of input deck ==============================
echo
start wfn1_dat
geometry units au noautoz
  H 0 0 -2.64434600000000000000
  H 0 0  2.64434600000000000000
  symmetry cs
end
basis
  H library 6-31g
end
set wfn1:input_vectors "atomic"
set wfn1:solver "monte-carlo"
set wfn1:print_error F
set wfn1:t_initial 0.1
set wfn1:nopen 2
#set wfn1:corr_expr "wfn1_mx"
set wfn1:corr_expr "wfn1c"
set wfn1:t_bath 0.0
set wfn1:maxit  20000
task wfn1 energy
================================================================================


                                         
                                         


              Northwest Computational Chemistry Package (NWChem) 6.8
              ------------------------------------------------------


                    Environmental Molecular Sciences Laboratory
                       Pacific Northwest National Laboratory
                                Richland, WA 99352

                              Copyright (c) 1994-2015
                       Pacific Northwest National Laboratory
                            Battelle Memorial Institute

             NWChem is an open-source computational chemistry package
                        distributed under the terms of the
                      Educational Community License (ECL) 2.0
             A copy of the license is included with this distribution
                              in the LICENSE.TXT file

                                  ACKNOWLEDGMENT
                                  --------------

            This software and its documentation were developed at the
            EMSL at Pacific Northwest National Laboratory, a multiprogram
            national laboratory, operated for the U.S. Department of Energy
            by Battelle under Contract Number DE-AC05-76RL01830. Support
            for this work was provided by the Department of Energy Office
            of Biological and Environmental Research, Office of Basic
            Energy Sciences, and the Office of Advanced Scientific Computing.


           Job information
           ---------------

    hostname        = erato
    program         = ../../../bin/LINUX64/nwchem
    date            = Sat Mar  6 01:32:01 2021

    compiled        = Sat_Mar_06_01:07:04_2021
    source          = /home/hvandam/nwchem-1-wfn1
    nwchem branch   = Development
    nwchem revision = nwchem_on_git-124-gad72d19fff205e319ffbbf2bca37a04ded6ad57b
    ga revision     = nwchem_on_git-124-gad72d19
    use scalapack   = F
    input           = input-wf.nw
    prefix          = wfn1_dat.
    data base       = ./wfn1_dat.db
    status          = startup
    nproc           =        1
    time left       =     -1s



           Memory information
           ------------------

    heap     =   13107196 doubles =    100.0 Mbytes
    stack    =   13107201 doubles =    100.0 Mbytes
    global   =   26214400 doubles =    200.0 Mbytes (distinct from heap & stack)
    total    =   52428797 doubles =    400.0 Mbytes
    verify   = yes
    hardfail = no 


           Directory information
           ---------------------

  0 permanent = .
  0 scratch   = .




                                NWChem Input Module
                                -------------------


 Turning off AUTOSYM since
 SYMMETRY directive was detected!



                             Geometry "geometry" -> ""
                             -------------------------

 Output coordinates in a.u. (scale by  1.000000000 to convert to a.u.)

  No.       Tag          Charge          X              Y              Z
 ---- ---------------- ---------- -------------- -------------- --------------
    1 H                    1.0000     0.00000000     0.00000000    -2.64434600
    2 H                    1.0000     0.00000000     0.00000000     2.64434600

      Atomic Mass 
      ----------- 

      H                  1.007825


 Effective nuclear repulsion energy (a.u.)       0.1890826692

            Nuclear Dipole moment (a.u.) 
            ----------------------------
        X                 Y               Z
 ---------------- ---------------- ----------------
     0.0000000000     0.0000000000     0.0000000000

      Symmetry information
      --------------------

 Group name             Cs        
 Group number              2
 Group order               2
 No. of unique centers     1

      Symmetry unique atoms

     1


            XYZ format geometry
            -------------------
     2
 geometry
 H                     0.00000000     0.00000000    -1.39932774
 H                     0.00000000     0.00000000     1.39932774

                      Basis "ao basis" -> "" (cartesian)
                      -----
  H (Hydrogen)
  ------------
            Exponent  Coefficients 
       -------------- ---------------------------------------------------------
  1 S  1.87311370E+01  0.033495
  1 S  2.82539370E+00  0.234727
  1 S  6.40121700E-01  0.813757

  2 S  1.61277800E-01  1.000000



 Summary of "ao basis" -> "" (cartesian)
 ------------------------------------------------------------------------------
       Tag                 Description            Shells   Functions and Types
 ---------------- ------------------------------  ------  ---------------------
 H                           6-31g                   2        2   2s



                                NWChem WFN1 Module
                                ------------------



          No. of electrons :     2
           Alpha electrons :     2
            Beta electrons :     0
          Charge           :     0
          Spin multiplicity:     3

 HvD: wfn1_inpdft
 HvD: nquad_task =                     1
 HvD: iangquad   =                     0
 HvD: gridtype   = user      
 HvD: leb        =  T
 HvD: radgrid    = murakn    
 HvD: trunc_neigh=  T
 HvD: lssw       =  T
 HvD: whichssw   = erf1    
 HvD: mxnrad     =                     0
 HvD: mxnang     =                     0
 HVD: wfn1: movecs_in  = atomic                                                                                                                                                                                                                                                          
 HVD: wfn1: movecs_out = ./wfn1_dat.movecs                                                                                                                                                                                                                                               

      Superposition of Atomic Density Guess
      -------------------------------------

 Sum of atomic energies:          -0.99646508

      Non-variational initial energy
      ------------------------------

 Total energy =      -0.682941
 1-e energy   =      -1.374628
 2-e energy   =       0.502603
 HOMO         =      -0.216189
 LUMO         =      -0.164734

 iteration              energy           error
 ---------              ------           -----
         0         -0.98384958        0.080000
         1         -0.98517672        0.080000
         2         -0.98577872        0.080000
         3         -0.98743497        0.080000
         4         -0.98811364        0.080000
         5         -0.98842690        0.080000
         6         -0.98983461        0.080000
         7         -0.99007053        0.080000
         8         -0.99054419        0.080000
         9         -0.99119506        0.080000
        10         -0.99121964        0.080000
        11         -0.99223066        0.080000
        12         -0.99230543        0.080000
        13         -0.99249370        0.080000
        14         -0.99323977        0.080000
        15         -0.99330254        0.080000
        16         -0.99372676        0.080000
        17         -0.99388914        0.080000
        18         -0.99403185        0.080000
        19         -0.99408729        0.080000
        20         -0.99421376        0.080000
        21         -0.99437830        0.080000
        22         -0.99484749        0.080000
        23         -0.99496851        0.080000
        24         -0.99513088        0.080000
        25         -0.99513884        0.075485
        26         -0.99521126        0.064708
        27         -0.99532166        0.055470
        28         -0.99533546        0.055470
        29         -0.99542244        0.047551
        30         -0.99546488        0.041554
        31         -0.99547993        0.035621
        32         -0.99548043        0.025677
        33         -0.99548126        0.025677
        34         -0.99548332        0.025677
        35         -0.99549709        0.025677
        36         -0.99550042        0.018509
        37         -0.99550219        0.016810
        38         -0.99550594        0.014410
        39         -0.99550722        0.014410
        40         -0.99550974        0.014410
        41         -0.99551099        0.014410
        42         -0.99551411        0.014410
        43         -0.99551696        0.012352
        44         -0.99551713        0.012352
        45         -0.99551728        0.012352
        46         -0.99551744        0.009617
        47         -0.99551754        0.007204
        48         -0.99551799        0.007204
        49         -0.99551848        0.007204
        50         -0.99551849        0.007204
        51         -0.99551864        0.007204
        52         -0.99551900        0.007204
        53         -0.99551934        0.005193
        54         -0.99551947        0.005193
        55         -0.99551969        0.005193
        56         -0.99552007        0.004121
        57         -0.99552009        0.004121
        58         -0.99552045        0.004121
        59         -0.99552058        0.004121
        60         -0.99552125        0.003671
        61         -0.99552125        0.003334
        62         -0.99552129        0.003334
        63         -0.99552131        0.003334
        64         -0.99552142        0.002404
        65         -0.99552143        0.001801
        66         -0.99552143        0.001543
        67         -0.99552145        0.001323
        68         -0.99552146        0.001134
        69         -0.99552146        0.000818
        70         -0.99552147        0.000818
        71         -0.99552149        0.000818
        72         -0.99552149        0.000701
        73         -0.99552150        0.000701
        74         -0.99552151        0.000701
        75         -0.99552151        0.000624
        76         -0.99552151        0.000393
        77         -0.99552151        0.000393
        78         -0.99552151        0.000393
        79         -0.99552152        0.000284
        80         -0.99552152        0.000284
        81         -0.99552152        0.000253
        82         -0.99552152        0.000186
        83         -0.99552152        0.000134
        84         -0.99552152        0.000134
        85         -0.99552152        0.000134
        86         -0.99552152        0.000115
        87         -0.99552152        0.000102
        88         -0.99552152        0.000088
        89         -0.99552152        0.000088
        90         -0.99552152        0.000088
        91         -0.99552152        0.000075
        92         -0.99552152        0.000075
        93         -0.99552152        0.000075
        94         -0.99552152        0.000056
        95         -0.99552152        0.000050
        96         -0.99552152        0.000050
        97         -0.99552152        0.000050
        98         -0.99552152        0.000050
        99         -0.99552152        0.000043
       100         -0.99552152        0.000043
       101         -0.99552152        0.000043
       102         -0.99552152        0.000043
       103         -0.99552152        0.000033
       104         -0.99552152        0.000033
       105         -0.99552152        0.000025
       106         -0.99552152        0.000025
       107         -0.99552152        0.000025
       108         -0.99552152        0.000025
       109         -0.99552152        0.000025
       110         -0.99552152        0.000025
       111         -0.99552152        0.000022
       112         -0.99552152        0.000022
       113         -0.99552152        0.000021
       114         -0.99552152        0.000021
       115         -0.99552152        0.000021
       116         -0.99552152        0.000021
       117         -0.99552152        0.000015
       118         -0.99552152        0.000012
       119         -0.99552152        0.000012
       120         -0.99552152        0.000012
       121         -0.99552152        0.000010
       122         -0.99552152        0.000006
       123         -0.99552152        0.000006
       124         -0.99552152        0.000006
       125         -0.99552152        0.000006
       126         -0.99552152        0.000006
       127         -0.99552152        0.000003
       128         -0.99552152        0.000003
       129         -0.99552152        0.000003
       130         -0.99552152        0.000003
       131         -0.99552152        0.000002
       132         -0.99552152        0.000002
       133         -0.99552152        0.000002
       134         -0.99552152        0.000002
       135         -0.99552152        0.000002
       136         -0.99552152        0.000002
       137         -0.99552152        0.000001
       138         -0.99552152        0.000001
       139         -0.99552152        0.000001
       140         -0.99552152        0.000001
       141         -0.99552152        0.000001

 Reached Convergence

 WFN1                     :
 --------------------------
 Total WFN1 energy  =          -0.9955215184
 1-Electron energy  =          -1.3727020810
 2-Electron energy  =           0.1880978934
 Correlation energy =           0.0000000000
 DFT XC energy      =           0.0000000000
 Entropy energy     =           0.0000000000
 Nuclear energy     =           0.1890826692

 conventional Hartree-Fock:
 --------------------------
 Total SCF energy  =          -0.9955215184
 2-Electron energy =           0.1880978934

                WFN1 Final Natural orbital energies and occupations
                ---------------------------------------------------

              Alpha       Beta            Alpha       Beta  
            --------    --------        --------    --------
       1      0.0000      0.0000          1.0000      0.0000
       2      0.0000      0.0000          1.0000      0.0000
       3      0.0000      0.0000          0.0000      0.0000
       4      0.0000      0.0000          0.0000      0.0000

             WFN1 Final Correlation function energies and occupations
             --------------------------------------------------------

              Alpha       Beta            Alpha       Beta  
            --------    --------        --------    --------
       1      0.0000      0.0000          1.0000      0.0000
       2      0.0000      0.0000          1.0000      0.0000
       3      0.0000      0.0000          0.0000      0.0000
       4      0.0000      0.0000          0.0000      0.0000

                WFN1 Final alpha-alpha 2-matrix occupation numbers
                --------------------------------------------------


 global array: g_momo1[1:4,1:4],  handle: -990 

            1           2           3           4  
       ----------- ----------- ----------- -----------
   1       0.00000     1.00000     0.00000     0.00000
   2       1.00000     0.00000     0.00000     0.00000
   3       0.00000     0.00000     0.00000     0.00000
   4       0.00000     0.00000     0.00000     0.00000

                 WFN1 Final beta-beta 2-matrix occupation numbers
                 ------------------------------------------------


 global array: g_momo2[1:4,1:4],  handle: -989 

            1           2           3           4  
       ----------- ----------- ----------- -----------
   1       0.00000     0.00000     0.00000     0.00000
   2       0.00000     0.00000     0.00000     0.00000
   3       0.00000     0.00000     0.00000     0.00000
   4       0.00000     0.00000     0.00000     0.00000

                  WFN1 Final alpha Correlation Function Analysis
                  ----------------------------------------------


 global array: Ca[1:4,1:4],  handle: -977 

                     1                       2                       3                       4  
       ----------------------- ----------------------- ----------------------- -----------------------
   1      -0.14106,   -0.75247    -0.13023,   -0.63002     0.00000,    0.00000     0.00000,   -0.00000
   2       0.36718,   -0.52827    -0.42522,    0.63663    -0.00000,   -0.00000     0.00000,    0.00000
   3       0.00000,    0.00000     0.00000,    0.00000     0.79931,    0.37528    -0.42726,   -0.19420
   4      -0.00000,    0.00000     0.00000,   -0.00000     0.38909,    0.26244     0.73812,    0.48468

                   WFN1 Final beta Correlation Function Analysis
                   ---------------------------------------------


 global array: Cb[1:4,1:4],  handle: -976 

                     1                       2                       3                       4  
       ----------------------- ----------------------- ----------------------- -----------------------
   1      -0.15707,   -0.76101    -0.14449,   -0.60355    -0.02120,    0.00134    -0.10260,    0.00764
   2       0.37057,   -0.50424    -0.44668,    0.63665     0.02883,   -0.01406     0.05018,   -0.00479
   3      -0.00785,    0.01748     0.00359,    0.02664     0.80655,    0.34774    -0.45271,   -0.15006
   4       0.00046,   -0.06508     0.07320,   -0.06263     0.36421,    0.30729     0.71339,    0.50048

                     WFN1 Final Alpha Natural Orbital Analysis
                     -----------------------------------------

 Vector    1  Occ=1.000000D+00  E= 0.000000D+00
              MO Center=  0.0D+00,  0.0D+00, -5.7D-03, r^2= 2.7D+00
   Bfn.  Coefficient  Atom+Function         Bfn.  Coefficient  Atom+Function  
  ----- ------------  ---------------      ----- ------------  ---------------
     2     -0.457891  1 H  s                  4     -0.455908  2 H  s          
     1     -0.295886  1 H  s                  3     -0.294614  2 H  s          

 Vector    2  Occ=1.000000D+00  E= 0.000000D+00
              MO Center=  0.0D+00,  0.0D+00,  5.7D-03, r^2= 2.8D+00
   Bfn.  Coefficient  Atom+Function         Bfn.  Coefficient  Atom+Function  
  ----- ------------  ---------------      ----- ------------  ---------------
     2      0.483751  1 H  s                  4     -0.485621  2 H  s          
     1      0.310106  1 H  s                  3     -0.311314  2 H  s          

 Vector    3  Occ=1.549420D-14  E= 0.000000D+00
              MO Center=  0.0D+00,  0.0D+00,  3.1D-02, r^2= 2.9D+00
   Bfn.  Coefficient  Atom+Function         Bfn.  Coefficient  Atom+Function  
  ----- ------------  ---------------      ----- ------------  ---------------
     3      0.883954  2 H  s                  1      0.864127  1 H  s          
     4     -0.759192  2 H  s                  2     -0.739729  1 H  s          

 Vector    4  Occ=2.160847D-15  E= 0.000000D+00
              MO Center=  0.0D+00,  0.0D+00, -3.1D-02, r^2= 3.5D+00
   Bfn.  Coefficient  Atom+Function         Bfn.  Coefficient  Atom+Function  
  ----- ------------  ---------------      ----- ------------  ---------------
     1     -0.919772  1 H  s                  2      0.901712  1 H  s          
     3      0.900734  2 H  s                  4     -0.885388  2 H  s          


                     WFN1 Final Beta Natural Orbital Analysis
                     ----------------------------------------

 Vector    1  Occ=0.000000D+00  E= 0.000000D+00
              MO Center=  0.0D+00,  0.0D+00,  7.4D-02, r^2= 2.8D+00
   Bfn.  Coefficient  Atom+Function         Bfn.  Coefficient  Atom+Function  
  ----- ------------  ---------------      ----- ------------  ---------------
     4     -0.558825  2 H  s                  2     -0.498701  1 H  s          
     1     -0.219035  1 H  s                  3     -0.194869  2 H  s          

 Vector    2  Occ=0.000000D+00  E= 0.000000D+00
              MO Center=  0.0D+00,  0.0D+00, -6.5D-02, r^2= 3.0D+00
   Bfn.  Coefficient  Atom+Function         Bfn.  Coefficient  Atom+Function  
  ----- ------------  ---------------      ----- ------------  ---------------
     2      0.557399  1 H  s                  4     -0.517144  2 H  s          
     3     -0.259734  2 H  s                  1      0.251091  1 H  s          

 Vector    3  Occ=0.000000D+00  E= 0.000000D+00
              MO Center=  0.0D+00,  0.0D+00, -5.1D-03, r^2= 2.8D+00
   Bfn.  Coefficient  Atom+Function         Bfn.  Coefficient  Atom+Function  
  ----- ------------  ---------------      ----- ------------  ---------------
     1      0.902525  1 H  s                  3      0.895629  2 H  s          
     4     -0.705153  2 H  s                  2     -0.695452  1 H  s          

 Vector    4  Occ=0.000000D+00  E= 0.000000D+00
              MO Center=  0.0D+00,  0.0D+00, -3.3D-03, r^2= 3.4D+00
   Bfn.  Coefficient  Atom+Function         Bfn.  Coefficient  Atom+Function  
  ----- ------------  ---------------      ----- ------------  ---------------
     3      0.932107  2 H  s                  1     -0.922408  1 H  s          
     2      0.872304  1 H  s                  4     -0.852643  2 H  s          


 Task  times  cpu:       15.2s     wall:       25.9s
 Summary of allocated global arrays
-----------------------------------
  No active global arrays



                         GA Statistics for process    0
                         ------------------------------

       create   destroy   get      put      acc     scatter   gather  read&inc
calls:   44       44     8.27e+06 2.86e+04 2.27e+04    0        0       11     
number of processes/call 1.00e+00 1.00e+00 1.00e+00 0.00e+00 0.00e+00
bytes total:             1.06e+09 5.06e+06 3.61e+06 0.00e+00 0.00e+00 8.80e+01
bytes remote:            0.00e+00 0.00e+00 0.00e+00 0.00e+00 0.00e+00 0.00e+00
Max memory consumed for GA by this process: 10624 bytes
MA_summarize_allocated_blocks: starting scan ...
MA_summarize_allocated_blocks: scan completed: 0 heap blocks, 0 stack blocks
MA usage statistics:

	allocation statistics:
					      heap	     stack
					      ----	     -----
	current number of blocks	         0	         0
	maximum number of blocks	        19	        17
	current total bytes		         0	         0
	maximum total bytes		   3204360	  22508648
	maximum total K-bytes		      3205	     22509
	maximum total M-bytes		         4	        23


                                NWChem Input Module
                                -------------------





                                     CITATION
                                     --------
                Please cite the following reference when publishing
                           results obtained with NWChem:

                 M. Valiev, E.J. Bylaska, N. Govind, K. Kowalski,
              T.P. Straatsma, H.J.J. van Dam, D. Wang, J. Nieplocha,
                        E. Apra, T.L. Windus, W.A. de Jong
                 "NWChem: a comprehensive and scalable open-source
                  solution for large scale molecular simulations"
                      Comput. Phys. Commun. 181, 1477 (2010)
                           doi:10.1016/j.cpc.2010.04.018

                                      AUTHORS
                                      -------
          E. Apra, E. J. Bylaska, W. A. de Jong, N. Govind, K. Kowalski,
       T. P. Straatsma, M. Valiev, H. J. J. van Dam, D. Wang, T. L. Windus,
        J. Hammond, J. Autschbach, K. Bhaskaran-Nair, J. Brabec, K. Lopata,
    S. A. Fischer, S. Krishnamoorthy, M. Jacquelin, W. Ma, M. Klemm, O. Villa,
      Y. Chen, V. Anisimov, F. Aquino, S. Hirata, M. T. Hackler, V. Konjkov,
      T. Risthaus, M. Malagoli, A. Marenich, A. Otero-de-la-Roza, J. Mullin,
        P. Nichols, R. Peverati, J. Pittner, Y. Zhao, P.-D. Fan, A. Fonari,
       M. Williamson, R. J. Harrison, J. R. Rehr, M. Dupuis, D. Silverstein,
    D. M. A. Smith, J. Nieplocha, V. Tipparaju, M. Krishnan, B. E. Van Kuiken,
        A. Vazquez-Mayagoitia, L. Jensen, M. Swart, Q. Wu, T. Van Voorhis,
     A. A. Auer, M. Nooijen, L. D. Crosby, E. Brown, G. Cisneros, G. I. Fann,
   H. Fruchtl, J. Garza, K. Hirao, R. A. Kendall, J. A. Nichols, K. Tsemekhman,
    K. Wolinski, J. Anchell, D. E. Bernholdt, P. Borowski, T. Clark, D. Clerc,
   H. Dachsel, M. J. O. Deegan, K. Dyall, D. Elwood, E. Glendening, M. Gutowski,
   A. C. Hess, J. Jaffe, B. G. Johnson, J. Ju, R. Kobayashi, R. Kutteh, Z. Lin,
   R. Littlefield, X. Long, B. Meng, T. Nakajima, S. Niu, L. Pollack, M. Rosing,
   K. Glaesemann, G. Sandrone, M. Stave, H. Taylor, G. Thomas, J. H. van Lenthe,
                               A. T. Wong, Z. Zhang.

 Total times  cpu:       15.2s     wall:       25.9s
