 argument  1 = input-wf.nw



============================== echo of input deck ==============================
echo
start wfn1_dat
geometry units au noautoz
  H 0 0 -1.99434600000000000000
  H 0 0  1.99434600000000000000
  symmetry cs
end
basis
  H library 6-31g
end
set wfn1:input_vectors "atomic"
set wfn1:solver "monte-carlo"
set wfn1:print_error F
set wfn1:t_initial 0.1
set wfn1:nopen 2
#set wfn1:corr_expr "wfn1_mx"
set wfn1:corr_expr "wfn1c"
set wfn1:t_bath 0.0
set wfn1:maxit  20000
task wfn1 energy
================================================================================


                                         
                                         


              Northwest Computational Chemistry Package (NWChem) 6.8
              ------------------------------------------------------


                    Environmental Molecular Sciences Laboratory
                       Pacific Northwest National Laboratory
                                Richland, WA 99352

                              Copyright (c) 1994-2015
                       Pacific Northwest National Laboratory
                            Battelle Memorial Institute

             NWChem is an open-source computational chemistry package
                        distributed under the terms of the
                      Educational Community License (ECL) 2.0
             A copy of the license is included with this distribution
                              in the LICENSE.TXT file

                                  ACKNOWLEDGMENT
                                  --------------

            This software and its documentation were developed at the
            EMSL at Pacific Northwest National Laboratory, a multiprogram
            national laboratory, operated for the U.S. Department of Energy
            by Battelle under Contract Number DE-AC05-76RL01830. Support
            for this work was provided by the Department of Energy Office
            of Biological and Environmental Research, Office of Basic
            Energy Sciences, and the Office of Advanced Scientific Computing.


           Job information
           ---------------

    hostname        = erato
    program         = ../../../bin/LINUX64/nwchem
    date            = Sat Mar  6 01:27:04 2021

    compiled        = Sat_Mar_06_01:07:04_2021
    source          = /home/hvandam/nwchem-1-wfn1
    nwchem branch   = Development
    nwchem revision = nwchem_on_git-124-gad72d19fff205e319ffbbf2bca37a04ded6ad57b
    ga revision     = nwchem_on_git-124-gad72d19
    use scalapack   = F
    input           = input-wf.nw
    prefix          = wfn1_dat.
    data base       = ./wfn1_dat.db
    status          = startup
    nproc           =        1
    time left       =     -1s



           Memory information
           ------------------

    heap     =   13107200 doubles =    100.0 Mbytes
    stack    =   13107197 doubles =    100.0 Mbytes
    global   =   26214400 doubles =    200.0 Mbytes (distinct from heap & stack)
    total    =   52428797 doubles =    400.0 Mbytes
    verify   = yes
    hardfail = no 


           Directory information
           ---------------------

  0 permanent = .
  0 scratch   = .




                                NWChem Input Module
                                -------------------


 Turning off AUTOSYM since
 SYMMETRY directive was detected!



                             Geometry "geometry" -> ""
                             -------------------------

 Output coordinates in a.u. (scale by  1.000000000 to convert to a.u.)

  No.       Tag          Charge          X              Y              Z
 ---- ---------------- ---------- -------------- -------------- --------------
    1 H                    1.0000     0.00000000     0.00000000    -1.99434600
    2 H                    1.0000     0.00000000     0.00000000     1.99434600

      Atomic Mass 
      ----------- 

      H                  1.007825


 Effective nuclear repulsion energy (a.u.)       0.2507087536

            Nuclear Dipole moment (a.u.) 
            ----------------------------
        X                 Y               Z
 ---------------- ---------------- ----------------
     0.0000000000     0.0000000000     0.0000000000

      Symmetry information
      --------------------

 Group name             Cs        
 Group number              2
 Group order               2
 No. of unique centers     1

      Symmetry unique atoms

     1


            XYZ format geometry
            -------------------
     2
 geometry
 H                     0.00000000     0.00000000    -1.05536253
 H                     0.00000000     0.00000000     1.05536253

                      Basis "ao basis" -> "" (cartesian)
                      -----
  H (Hydrogen)
  ------------
            Exponent  Coefficients 
       -------------- ---------------------------------------------------------
  1 S  1.87311370E+01  0.033495
  1 S  2.82539370E+00  0.234727
  1 S  6.40121700E-01  0.813757

  2 S  1.61277800E-01  1.000000



 Summary of "ao basis" -> "" (cartesian)
 ------------------------------------------------------------------------------
       Tag                 Description            Shells   Functions and Types
 ---------------- ------------------------------  ------  ---------------------
 H                           6-31g                   2        2   2s



                                NWChem WFN1 Module
                                ------------------



          No. of electrons :     2
           Alpha electrons :     2
            Beta electrons :     0
          Charge           :     0
          Spin multiplicity:     3

 HvD: wfn1_inpdft
 HvD: nquad_task =                     1
 HvD: iangquad   =                     0
 HvD: gridtype   = user      
 HvD: leb        =  T
 HvD: radgrid    = murakn    
 HvD: trunc_neigh=  T
 HvD: lssw       =  T
 HvD: whichssw   = erf1    
 HvD: mxnrad     =                     0
 HvD: mxnang     =                     0
 HVD: wfn1: movecs_in  = atomic                                                                                                                                                                                                                                                          
 HVD: wfn1: movecs_out = ./wfn1_dat.movecs                                                                                                                                                                                                                                               

      Superposition of Atomic Density Guess
      -------------------------------------

 Sum of atomic energies:          -0.99646508

      Non-variational initial energy
      ------------------------------

 Total energy =      -0.690516
 1-e energy   =      -1.497582
 2-e energy   =       0.556357
 HOMO         =      -0.256870
 LUMO         =      -0.118386

 iteration              energy           error
 ---------              ------           -----
         0         -0.97726526        0.080000
         1         -0.97846304        0.080000
         2         -0.97919992        0.080000
         3         -0.98066672        0.080000
         4         -0.98071461        0.080000
         5         -0.98098375        0.080000
         6         -0.98132713        0.080000
         7         -0.98209294        0.080000
         8         -0.98231203        0.080000
         9         -0.98256051        0.080000
        10         -0.98257345        0.080000
        11         -0.98292172        0.080000
        12         -0.98465588        0.080000
        13         -0.98470715        0.080000
        14         -0.98551242        0.080000
        15         -0.98578820        0.080000
        16         -0.98635913        0.080000
        17         -0.98701269        0.080000
        18         -0.98713995        0.080000
        19         -0.98744413        0.080000
        20         -0.98763409        0.080000
        21         -0.98786884        0.080000
        22         -0.98799562        0.080000
        23         -0.98800055        0.080000
        24         -0.98815495        0.080000
        25         -0.98821451        0.080000
        26         -0.98852030        0.080000
        27         -0.98858941        0.080000
        28         -0.98869331        0.080000
        29         -0.98887260        0.080000
        30         -0.98888796        0.068553
        31         -0.98891706        0.068553
        32         -0.98892401        0.068553
        33         -0.98894786        0.068553
        34         -0.98899520        0.068553
        35         -0.98899700        0.059907
        36         -0.98900319        0.046639
        37         -0.98900741        0.028270
        38         -0.98900921        0.028270
        39         -0.98901107        0.028270
        40         -0.98901439        0.024234
        41         -0.98902258        0.021589
        42         -0.98902359        0.021589
        43         -0.98902404        0.015562
        44         -0.98903017        0.013600
        45         -0.98903402        0.013600
        46         -0.98903432        0.011658
        47         -0.98903607        0.011658
        48         -0.98903714        0.011658
        49         -0.98903749        0.011658
        50         -0.98903791        0.011658
        51         -0.98903826        0.011658
        52         -0.98903856        0.006058
        53         -0.98903879        0.004808
        54         -0.98903902        0.004121
        55         -0.98903930        0.004121
        56         -0.98903958        0.003533
        57         -0.98903964        0.003087
        58         -0.98903966        0.002647
        59         -0.98903978        0.002647
        60         -0.98903979        0.001908
        61         -0.98903979        0.001908
        62         -0.98903983        0.001908
        63         -0.98903983        0.001908
        64         -0.98903986        0.001179
        65         -0.98903986        0.001179
        66         -0.98903989        0.000900
        67         -0.98903990        0.000787
        68         -0.98903990        0.000787
        69         -0.98903991        0.000787
        70         -0.98903991        0.000567
        71         -0.98903991        0.000505
        72         -0.98903992        0.000364
        73         -0.98903992        0.000364
        74         -0.98903992        0.000312
        75         -0.98903992        0.000273
        76         -0.98903992        0.000273
        77         -0.98903992        0.000273
        78         -0.98903992        0.000234
        79         -0.98903992        0.000147
        80         -0.98903992        0.000147
        81         -0.98903992        0.000147
        82         -0.98903992        0.000147
        83         -0.98903992        0.000126
        84         -0.98903992        0.000115
        85         -0.98903992        0.000115
        86         -0.98903992        0.000115
        87         -0.98903992        0.000070
        88         -0.98903992        0.000062
        89         -0.98903992        0.000062
        90         -0.98903992        0.000062
        91         -0.98903992        0.000053
        92         -0.98903992        0.000053
        93         -0.98903992        0.000047
        94         -0.98903992        0.000047
        95         -0.98903992        0.000035
        96         -0.98903992        0.000030
        97         -0.98903992        0.000022
        98         -0.98903992        0.000022
        99         -0.98903992        0.000019
       100         -0.98903992        0.000019
       101         -0.98903992        0.000016
       102         -0.98903992        0.000014
       103         -0.98903992        0.000012
       104         -0.98903992        0.000012
       105         -0.98903992        0.000011
       106         -0.98903992        0.000009
       107         -0.98903992        0.000008
       108         -0.98903992        0.000008
       109         -0.98903992        0.000008
       110         -0.98903992        0.000008
       111         -0.98903992        0.000008
       112         -0.98903992        0.000008
       113         -0.98903992        0.000008
       114         -0.98903992        0.000006
       115         -0.98903992        0.000006
       116         -0.98903992        0.000006
       117         -0.98903992        0.000005
       118         -0.98903992        0.000005
       119         -0.98903992        0.000005
       120         -0.98903992        0.000005
       121         -0.98903992        0.000005
       122         -0.98903992        0.000003
       123         -0.98903992        0.000003
       124         -0.98903992        0.000003
       125         -0.98903992        0.000003
       126         -0.98903992        0.000003
       127         -0.98903992        0.000003
       128         -0.98903992        0.000003
       129         -0.98903992        0.000003
       130         -0.98903992        0.000002
       131         -0.98903992        0.000002
       132         -0.98903992        0.000002
       133         -0.98903992        0.000001
       134         -0.98903992        0.000001
       135         -0.98903992        0.000001

 Reached Convergence

 WFN1                     :
 --------------------------
 Total WFN1 energy  =          -0.9890399229
 1-Electron energy  =          -1.4809263002
 2-Electron energy  =           0.2411776236
 Correlation energy =           0.0000000000
 DFT XC energy      =           0.0000000000
 Entropy energy     =           0.0000000000
 Nuclear energy     =           0.2507087536

 conventional Hartree-Fock:
 --------------------------
 Total SCF energy  =          -0.9890399229
 2-Electron energy =           0.2411776236

                WFN1 Final Natural orbital energies and occupations
                ---------------------------------------------------

              Alpha       Beta            Alpha       Beta  
            --------    --------        --------    --------
       1      0.0000      0.0000          1.0000      0.0000
       2      0.0000      0.0000          1.0000      0.0000
       3      0.0000      0.0000          0.0000      0.0000
       4      0.0000      0.0000          0.0000      0.0000

             WFN1 Final Correlation function energies and occupations
             --------------------------------------------------------

              Alpha       Beta            Alpha       Beta  
            --------    --------        --------    --------
       1      0.0000      0.0000          1.0000      0.0000
       2      0.0000      0.0000          1.0000      0.0000
       3      0.0000      0.0000          0.0000      0.0000
       4      0.0000      0.0000          0.0000      0.0000

                WFN1 Final alpha-alpha 2-matrix occupation numbers
                --------------------------------------------------


 global array: g_momo1[1:4,1:4],  handle: -990 

            1           2           3           4  
       ----------- ----------- ----------- -----------
   1       0.00000     1.00000     0.00000     0.00000
   2       1.00000     0.00000     0.00000     0.00000
   3       0.00000     0.00000     0.00000     0.00000
   4       0.00000     0.00000     0.00000    -0.00000

                 WFN1 Final beta-beta 2-matrix occupation numbers
                 ------------------------------------------------


 global array: g_momo2[1:4,1:4],  handle: -989 

            1           2           3           4  
       ----------- ----------- ----------- -----------
   1       0.00000     0.00000     0.00000     0.00000
   2       0.00000     0.00000     0.00000     0.00000
   3       0.00000     0.00000     0.00000     0.00000
   4       0.00000     0.00000     0.00000     0.00000

                  WFN1 Final alpha Correlation Function Analysis
                  ----------------------------------------------


 global array: Ca[1:4,1:4],  handle: -977 

                     1                       2                       3                       4  
       ----------------------- ----------------------- ----------------------- -----------------------
   1       0.03142,    0.89663    -0.03369,   -0.44038     0.00000,    0.00000    -0.00000,    0.00000
   2      -0.38211,   -0.22150    -0.79412,   -0.41749     0.00000,   -0.00000     0.00000,    0.00000
   3      -0.00000,    0.00000     0.00000,    0.00000     0.70782,    0.36910     0.52973,    0.28660
   4       0.00000,   -0.00000    -0.00000,   -0.00000    -0.35202,    0.48871     0.47641,   -0.64054

                   WFN1 Final beta Correlation Function Analysis
                   ---------------------------------------------


 global array: Cb[1:4,1:4],  handle: -976 

                     1                       2                       3                       4  
       ----------------------- ----------------------- ----------------------- -----------------------
   1       0.04972,    0.87808    -0.07565,   -0.45553     0.07871,    0.02013    -0.07790,   -0.02444
   2      -0.37634,   -0.26974    -0.77073,   -0.42995     0.06211,    0.00228     0.05071,   -0.01734
   3       0.01675,    0.02422     0.03100,    0.06950     0.69354,    0.35558     0.54809,    0.29242
   4       0.09954,    0.03649    -0.04581,    0.00230    -0.36262,    0.50061     0.46443,   -0.62359

                     WFN1 Final Alpha Natural Orbital Analysis
                     -----------------------------------------

 Vector    1  Occ=1.000000D+00  E= 0.000000D+00
              MO Center=  0.0D+00,  0.0D+00,  8.5D-02, r^2= 1.8D+00
   Bfn.  Coefficient  Atom+Function         Bfn.  Coefficient  Atom+Function  
  ----- ------------  ---------------      ----- ------------  ---------------
     4     -0.445612  2 H  s                  2     -0.403419  1 H  s          
     3     -0.304659  2 H  s                  1     -0.279254  1 H  s          

 Vector    2  Occ=1.000000D+00  E= 0.000000D+00
              MO Center=  0.0D+00,  0.0D+00, -8.5D-02, r^2= 2.1D+00
   Bfn.  Coefficient  Atom+Function         Bfn.  Coefficient  Atom+Function  
  ----- ------------  ---------------      ----- ------------  ---------------
     2     -0.546771  1 H  s                  4      0.512966  2 H  s          
     1     -0.330658  1 H  s                  3      0.307409  2 H  s          

 Vector    3  Occ=2.013270D-14  E= 0.000000D+00
              MO Center=  0.0D+00,  0.0D+00,  5.8D-02, r^2= 2.1D+00
   Bfn.  Coefficient  Atom+Function         Bfn.  Coefficient  Atom+Function  
  ----- ------------  ---------------      ----- ------------  ---------------
     3     -0.908958  2 H  s                  1     -0.860961  1 H  s          
     4      0.735186  2 H  s                  2      0.682423  1 H  s          

 Vector    4  Occ=3.235465D-15  E= 0.000000D+00
              MO Center=  0.0D+00,  0.0D+00, -5.8D-02, r^2= 2.8D+00
   Bfn.  Coefficient  Atom+Function         Bfn.  Coefficient  Atom+Function  
  ----- ------------  ---------------      ----- ------------  ---------------
     2      1.020367  1 H  s                  4     -0.983033  2 H  s          
     1     -0.934530  1 H  s                  3      0.887916  2 H  s          


                     WFN1 Final Beta Natural Orbital Analysis
                     ----------------------------------------

 Vector    1  Occ=0.000000D+00  E= 0.000000D+00
              MO Center=  0.0D+00,  0.0D+00,  1.1D-01, r^2= 2.0D+00
   Bfn.  Coefficient  Atom+Function         Bfn.  Coefficient  Atom+Function  
  ----- ------------  ---------------      ----- ------------  ---------------
     4     -0.601327  2 H  s                  2     -0.430397  1 H  s          
     1     -0.220891  1 H  s                  3     -0.116290  2 H  s          

 Vector    2  Occ=0.000000D+00  E= 0.000000D+00
              MO Center=  0.0D+00,  0.0D+00, -9.2D-02, r^2= 2.2D+00
   Bfn.  Coefficient  Atom+Function         Bfn.  Coefficient  Atom+Function  
  ----- ------------  ---------------      ----- ------------  ---------------
     4      0.594219  2 H  s                  2     -0.562184  1 H  s          
     1     -0.327653  1 H  s                  3      0.218529  2 H  s          

 Vector    3  Occ=0.000000D+00  E= 0.000000D+00
              MO Center=  0.0D+00,  0.0D+00, -5.6D-02, r^2= 2.0D+00
   Bfn.  Coefficient  Atom+Function         Bfn.  Coefficient  Atom+Function  
  ----- ------------  ---------------      ----- ------------  ---------------
     1     -0.930759  1 H  s                  3     -0.897805  2 H  s          
     2      0.708742  1 H  s                  4      0.582325  2 H  s          

 Vector    4  Occ=0.000000D+00  E= 0.000000D+00
              MO Center=  0.0D+00,  0.0D+00,  4.2D-02, r^2= 2.7D+00
   Bfn.  Coefficient  Atom+Function         Bfn.  Coefficient  Atom+Function  
  ----- ------------  ---------------      ----- ------------  ---------------
     2      0.982318  1 H  s                  3      0.966739  2 H  s          
     4     -0.956432  2 H  s                  1     -0.882868  1 H  s          


 Task  times  cpu:       14.4s     wall:       22.4s
 Summary of allocated global arrays
-----------------------------------
  No active global arrays



                         GA Statistics for process    0
                         ------------------------------

       create   destroy   get      put      acc     scatter   gather  read&inc
calls:   44       44     7.87e+06 2.72e+04 2.16e+04    0        0       11     
number of processes/call 1.00e+00 1.00e+00 1.00e+00 0.00e+00 0.00e+00
bytes total:             1.01e+09 4.81e+06 3.44e+06 0.00e+00 0.00e+00 8.80e+01
bytes remote:            0.00e+00 0.00e+00 0.00e+00 0.00e+00 0.00e+00 0.00e+00
Max memory consumed for GA by this process: 10624 bytes
MA_summarize_allocated_blocks: starting scan ...
MA_summarize_allocated_blocks: scan completed: 0 heap blocks, 0 stack blocks
MA usage statistics:

	allocation statistics:
					      heap	     stack
					      ----	     -----
	current number of blocks	         0	         0
	maximum number of blocks	        19	        17
	current total bytes		         0	         0
	maximum total bytes		   3204328	  22508616
	maximum total K-bytes		      3205	     22509
	maximum total M-bytes		         4	        23


                                NWChem Input Module
                                -------------------





                                     CITATION
                                     --------
                Please cite the following reference when publishing
                           results obtained with NWChem:

                 M. Valiev, E.J. Bylaska, N. Govind, K. Kowalski,
              T.P. Straatsma, H.J.J. van Dam, D. Wang, J. Nieplocha,
                        E. Apra, T.L. Windus, W.A. de Jong
                 "NWChem: a comprehensive and scalable open-source
                  solution for large scale molecular simulations"
                      Comput. Phys. Commun. 181, 1477 (2010)
                           doi:10.1016/j.cpc.2010.04.018

                                      AUTHORS
                                      -------
          E. Apra, E. J. Bylaska, W. A. de Jong, N. Govind, K. Kowalski,
       T. P. Straatsma, M. Valiev, H. J. J. van Dam, D. Wang, T. L. Windus,
        J. Hammond, J. Autschbach, K. Bhaskaran-Nair, J. Brabec, K. Lopata,
    S. A. Fischer, S. Krishnamoorthy, M. Jacquelin, W. Ma, M. Klemm, O. Villa,
      Y. Chen, V. Anisimov, F. Aquino, S. Hirata, M. T. Hackler, V. Konjkov,
      T. Risthaus, M. Malagoli, A. Marenich, A. Otero-de-la-Roza, J. Mullin,
        P. Nichols, R. Peverati, J. Pittner, Y. Zhao, P.-D. Fan, A. Fonari,
       M. Williamson, R. J. Harrison, J. R. Rehr, M. Dupuis, D. Silverstein,
    D. M. A. Smith, J. Nieplocha, V. Tipparaju, M. Krishnan, B. E. Van Kuiken,
        A. Vazquez-Mayagoitia, L. Jensen, M. Swart, Q. Wu, T. Van Voorhis,
     A. A. Auer, M. Nooijen, L. D. Crosby, E. Brown, G. Cisneros, G. I. Fann,
   H. Fruchtl, J. Garza, K. Hirao, R. A. Kendall, J. A. Nichols, K. Tsemekhman,
    K. Wolinski, J. Anchell, D. E. Bernholdt, P. Borowski, T. Clark, D. Clerc,
   H. Dachsel, M. J. O. Deegan, K. Dyall, D. Elwood, E. Glendening, M. Gutowski,
   A. C. Hess, J. Jaffe, B. G. Johnson, J. Ju, R. Kobayashi, R. Kutteh, Z. Lin,
   R. Littlefield, X. Long, B. Meng, T. Nakajima, S. Niu, L. Pollack, M. Rosing,
   K. Glaesemann, G. Sandrone, M. Stave, H. Taylor, G. Thomas, J. H. van Lenthe,
                               A. T. Wong, Z. Zhang.

 Total times  cpu:       14.4s     wall:       22.5s
