 argument  1 = input-wf.nw



============================== echo of input deck ==============================
echo
start wfn1_dat
geometry units au noautoz
  H 0 0 -.29434600000000000000
  H 0 0  .29434600000000000000
  symmetry cs
end
basis
  H library 6-31g
end
set wfn1:input_vectors "atomic"
set wfn1:solver "monte-carlo"
set wfn1:print_error F
set wfn1:t_initial 0.1
set wfn1:nopen 2
#set wfn1:corr_expr "wfn1_mx"
set wfn1:corr_expr "wfn1c"
set wfn1:t_bath 0.0
set wfn1:maxit  20000
task wfn1 energy
================================================================================


                                         
                                         


              Northwest Computational Chemistry Package (NWChem) 6.8
              ------------------------------------------------------


                    Environmental Molecular Sciences Laboratory
                       Pacific Northwest National Laboratory
                                Richland, WA 99352

                              Copyright (c) 1994-2015
                       Pacific Northwest National Laboratory
                            Battelle Memorial Institute

             NWChem is an open-source computational chemistry package
                        distributed under the terms of the
                      Educational Community License (ECL) 2.0
             A copy of the license is included with this distribution
                              in the LICENSE.TXT file

                                  ACKNOWLEDGMENT
                                  --------------

            This software and its documentation were developed at the
            EMSL at Pacific Northwest National Laboratory, a multiprogram
            national laboratory, operated for the U.S. Department of Energy
            by Battelle under Contract Number DE-AC05-76RL01830. Support
            for this work was provided by the Department of Energy Office
            of Biological and Environmental Research, Office of Basic
            Energy Sciences, and the Office of Advanced Scientific Computing.


           Job information
           ---------------

    hostname        = erato
    program         = ../../../bin/LINUX64/nwchem
    date            = Sat Mar  6 01:14:01 2021

    compiled        = Sat_Mar_06_01:07:04_2021
    source          = /home/hvandam/nwchem-1-wfn1
    nwchem branch   = Development
    nwchem revision = nwchem_on_git-124-gad72d19fff205e319ffbbf2bca37a04ded6ad57b
    ga revision     = nwchem_on_git-124-gad72d19
    use scalapack   = F
    input           = input-wf.nw
    prefix          = wfn1_dat.
    data base       = ./wfn1_dat.db
    status          = startup
    nproc           =        1
    time left       =     -1s



           Memory information
           ------------------

    heap     =   13107200 doubles =    100.0 Mbytes
    stack    =   13107197 doubles =    100.0 Mbytes
    global   =   26214400 doubles =    200.0 Mbytes (distinct from heap & stack)
    total    =   52428797 doubles =    400.0 Mbytes
    verify   = yes
    hardfail = no 


           Directory information
           ---------------------

  0 permanent = .
  0 scratch   = .




                                NWChem Input Module
                                -------------------


 Turning off AUTOSYM since
 SYMMETRY directive was detected!



                             Geometry "geometry" -> ""
                             -------------------------

 Output coordinates in a.u. (scale by  1.000000000 to convert to a.u.)

  No.       Tag          Charge          X              Y              Z
 ---- ---------------- ---------- -------------- -------------- --------------
    1 H                    1.0000     0.00000000     0.00000000    -0.29434600
    2 H                    1.0000     0.00000000     0.00000000     0.29434600

      Atomic Mass 
      ----------- 

      H                  1.007825


 Effective nuclear repulsion energy (a.u.)       1.6986811440

            Nuclear Dipole moment (a.u.) 
            ----------------------------
        X                 Y               Z
 ---------------- ---------------- ----------------
     0.0000000000     0.0000000000     0.0000000000

      Symmetry information
      --------------------

 Group name             Cs        
 Group number              2
 Group order               2
 No. of unique centers     1

      Symmetry unique atoms

     1


            XYZ format geometry
            -------------------
     2
 geometry
 H                     0.00000000     0.00000000    -0.15576121
 H                     0.00000000     0.00000000     0.15576121

 ==============================================================================
                                internuclear distances
 ------------------------------------------------------------------------------
       center one      |      center two      | atomic units |       a.u.
 ------------------------------------------------------------------------------
    2 H                |   1 H                |     0.58869  |     0.58869
 ------------------------------------------------------------------------------
                         number of included internuclear distances:          1
 ==============================================================================



  atoms                     2  and                     1  are similar
  atom                     2  coordinates   0.0000000000000000        0.0000000000000000       0.29434600000000066     
  atom                     1  coordinates   0.0000000000000000        0.0000000000000000      -0.29434600000000066     
                      Basis "ao basis" -> "" (cartesian)
                      -----
  H (Hydrogen)
  ------------
            Exponent  Coefficients 
       -------------- ---------------------------------------------------------
  1 S  1.87311370E+01  0.033495
  1 S  2.82539370E+00  0.234727
  1 S  6.40121700E-01  0.813757

  2 S  1.61277800E-01  1.000000



 Summary of "ao basis" -> "" (cartesian)
 ------------------------------------------------------------------------------
       Tag                 Description            Shells   Functions and Types
 ---------------- ------------------------------  ------  ---------------------
 H                           6-31g                   2        2   2s



                                NWChem WFN1 Module
                                ------------------



          No. of electrons :     2
           Alpha electrons :     2
            Beta electrons :     0
          Charge           :     0
          Spin multiplicity:     3

 HvD: wfn1_inpdft
 HvD: nquad_task =                     1
 HvD: iangquad   =                     0
 HvD: gridtype   = user      
 HvD: leb        =  T
 HvD: radgrid    = murakn    
 HvD: trunc_neigh=  T
 HvD: lssw       =  T
 HvD: whichssw   = erf1    
 HvD: mxnrad     =                     0
 HvD: mxnang     =                     0
 HVD: wfn1: movecs_in  = atomic                                                                                                                                                                                                                                                          
 HVD: wfn1: movecs_out = ./wfn1_dat.movecs                                                                                                                                                                                                                                               

      Superposition of Atomic Density Guess
      -------------------------------------

 Sum of atomic energies:          -0.99646508

      Non-variational initial energy
      ------------------------------

 Total energy =      -0.397872
 1-e energy   =      -2.737169
 2-e energy   =       0.640616
 HOMO         =      -0.861744
 LUMO         =       0.269536

 iteration              energy           error
 ---------              ------           -----
         0          0.00543558        0.080000
         1          0.00476078        0.080000
         2          0.00208104        0.080000
         3         -0.00090268        0.080000
         4         -0.00207087        0.080000
         5         -0.00330438        0.080000
         6         -0.00379913        0.080000
         7         -0.00408223        0.080000
         8         -0.00548921        0.080000
         9         -0.00995627        0.080000
        10         -0.01054854        0.080000
        11         -0.01072308        0.080000
        12         -0.01412250        0.080000
        13         -0.01655791        0.080000
        14         -0.01701312        0.080000
        15         -0.01899390        0.080000
        16         -0.02017410        0.080000
        17         -0.02070002        0.080000
        18         -0.02169745        0.080000
        19         -0.02329383        0.080000
        20         -0.02404088        0.080000
        21         -0.02476791        0.080000
        22         -0.02514420        0.080000
        23         -0.02548370        0.080000
        24         -0.02557205        0.080000
        25         -0.02688432        0.080000
        26         -0.02731954        0.080000
        27         -0.02877465        0.080000
        28         -0.03093052        0.080000
        29         -0.03099407        0.080000
        30         -0.03356168        0.080000
        31         -0.03443832        0.080000
        32         -0.03490033        0.080000
        33         -0.03527056        0.080000
        34         -0.03529821        0.080000
        35         -0.03625449        0.080000
        36         -0.03693082        0.080000
        37         -0.03748936        0.080000
        38         -0.03816080        0.080000
        39         -0.03854978        0.080000
        40         -0.03864633        0.080000
        41         -0.03871590        0.080000
        42         -0.03882872        0.080000
        43         -0.03936589        0.080000
        44         -0.03948370        0.080000
        45         -0.03955397        0.078427
        46         -0.03960823        0.078427
        47         -0.03978338        0.078427
        48         -0.03981600        0.078427
        49         -0.03982126        0.078427
        50         -0.03996820        0.078427
        51         -0.04035585        0.078427
        52         -0.04048206        0.078427
        53         -0.04056096        0.067230
        54         -0.04057880        0.065941
        55         -0.04069730        0.065941
        56         -0.04071766        0.056526
        57         -0.04078809        0.056526
        58         -0.04085538        0.056526
        59         -0.04086378        0.056526
        60         -0.04092264        0.049398
        61         -0.04092759        0.049398
        62         -0.04093799        0.049398
        63         -0.04095124        0.049398
        64         -0.04095800        0.044861
        65         -0.04107466        0.044861
        66         -0.04110450        0.044861
        67         -0.04111125        0.040742
        68         -0.04113972        0.036295
        69         -0.04114760        0.036295
        70         -0.04120544        0.036295
        71         -0.04122093        0.031113
        72         -0.04123065        0.031113
        73         -0.04126770        0.031113
        74         -0.04129673        0.031113
        75         -0.04130642        0.031113
        76         -0.04133700        0.031113
        77         -0.04133782        0.031113
        78         -0.04136951        0.031113
        79         -0.04136962        0.023308
        80         -0.04137206        0.016165
        81         -0.04137311        0.016165
        82         -0.04137317        0.016165
        83         -0.04139166        0.016165
        84         -0.04139378        0.013857
        85         -0.04139950        0.013857
        86         -0.04140000        0.012585
        87         -0.04140250        0.012585
        88         -0.04140375        0.007776
        89         -0.04140397        0.007776
        90         -0.04140560        0.007776
        91         -0.04140583        0.007776
        92         -0.04140625        0.007776
        93         -0.04140974        0.007776
        94         -0.04140986        0.007776
        95         -0.04141010        0.006796
        96         -0.04141023        0.006796
        97         -0.04141193        0.006796
        98         -0.04141335        0.006538
        99         -0.04141532        0.006538
       100         -0.04141559        0.006538
       101         -0.04141617        0.006538
       102         -0.04141712        0.006538
       103         -0.04141738        0.006538
       104         -0.04141778        0.006538
       105         -0.04141819        0.005825
       106         -0.04141829        0.004713
       107         -0.04141830        0.004713
       108         -0.04141884        0.004713
       109         -0.04141919        0.004713
       110         -0.04141932        0.004713
       111         -0.04141983        0.004040
       112         -0.04142025        0.003740
       113         -0.04142030        0.003206
       114         -0.04142033        0.002748
       115         -0.04142034        0.001981
       116         -0.04142036        0.001981
       117         -0.04142044        0.001981
       118         -0.04142045        0.001981
       119         -0.04142051        0.001981
       120         -0.04142074        0.001981
       121         -0.04142083        0.001698
       122         -0.04142083        0.001348
       123         -0.04142086        0.001155
       124         -0.04142086        0.000990
       125         -0.04142086        0.000990
       126         -0.04142087        0.000990
       127         -0.04142087        0.000505
       128         -0.04142087        0.000450
       129         -0.04142088        0.000450
       130         -0.04142088        0.000450
       131         -0.04142088        0.000450
       132         -0.04142088        0.000450
       133         -0.04142088        0.000450
       134         -0.04142089        0.000450
       135         -0.04142089        0.000450
       136         -0.04142089        0.000324
       137         -0.04142089        0.000318
       138         -0.04142089        0.000318
       139         -0.04142089        0.000318
       140         -0.04142089        0.000318
       141         -0.04142089        0.000318
       142         -0.04142090        0.000318
       143         -0.04142090        0.000273
       144         -0.04142090        0.000257
       145         -0.04142090        0.000257
       146         -0.04142090        0.000221
       147         -0.04142090        0.000136
       148         -0.04142090        0.000136
       149         -0.04142090        0.000117
       150         -0.04142090        0.000117
       151         -0.04142090        0.000117
       152         -0.04142090        0.000102
       153         -0.04142090        0.000102
       154         -0.04142090        0.000102
       155         -0.04142090        0.000102
       156         -0.04142090        0.000102
       157         -0.04142090        0.000076
       158         -0.04142090        0.000076
       159         -0.04142090        0.000076
       160         -0.04142090        0.000071
       161         -0.04142090        0.000063
       162         -0.04142090        0.000063
       163         -0.04142090        0.000063
       164         -0.04142090        0.000063
       165         -0.04142090        0.000063
       166         -0.04142090        0.000054
       167         -0.04142090        0.000054
       168         -0.04142090        0.000054
       169         -0.04142090        0.000050
       170         -0.04142090        0.000050
       171         -0.04142090        0.000050
       172         -0.04142090        0.000050
       173         -0.04142090        0.000050
       174         -0.04142090        0.000050
       175         -0.04142090        0.000045
       176         -0.04142090        0.000045
       177         -0.04142090        0.000035
       178         -0.04142090        0.000035
       179         -0.04142090        0.000035
       180         -0.04142090        0.000031
       181         -0.04142090        0.000031
       182         -0.04142090        0.000028
       183         -0.04142090        0.000028
       184         -0.04142090        0.000020
       185         -0.04142090        0.000020
       186         -0.04142090        0.000018
       187         -0.04142090        0.000018
       188         -0.04142090        0.000018
       189         -0.04142090        0.000015
       190         -0.04142090        0.000015
       191         -0.04142090        0.000015
       192         -0.04142090        0.000012
       193         -0.04142090        0.000009
       194         -0.04142090        0.000009
       195         -0.04142090        0.000007
       196         -0.04142090        0.000007
       197         -0.04142090        0.000007
       198         -0.04142090        0.000007
       199         -0.04142090        0.000006
       200         -0.04142090        0.000006
       201         -0.04142090        0.000006
       202         -0.04142090        0.000006
       203         -0.04142090        0.000006
       204         -0.04142090        0.000005
       205         -0.04142090        0.000005
       206         -0.04142090        0.000005
       207         -0.04142090        0.000005
       208         -0.04142090        0.000005
       209         -0.04142090        0.000005
       210         -0.04142090        0.000005
       211         -0.04142090        0.000005
       212         -0.04142090        0.000005
       213         -0.04142090        0.000003
       214         -0.04142090        0.000003
       215         -0.04142090        0.000002
       216         -0.04142090        0.000002
       217         -0.04142090        0.000002
       218         -0.04142090        0.000001
       219         -0.04142090        0.000001
       220         -0.04142090        0.000001
       221         -0.04142090        0.000001

 Reached Convergence

 WFN1                     :
 --------------------------
 Total WFN1 energy  =          -0.0414209024
 1-Electron energy  =          -2.1494387800
 2-Electron energy  =           0.4093367337
 Correlation energy =           0.0000000000
 DFT XC energy      =           0.0000000000
 Entropy energy     =           0.0000000000
 Nuclear energy     =           1.6986811440

 conventional Hartree-Fock:
 --------------------------
 Total SCF energy  =          -0.0414209024
 2-Electron energy =           0.4093367337

                WFN1 Final Natural orbital energies and occupations
                ---------------------------------------------------

              Alpha       Beta            Alpha       Beta  
            --------    --------        --------    --------
       1      0.0000      0.0000          1.0000      0.0000
       2      0.0000      0.0000          1.0000      0.0000
       3      0.0000      0.0000          0.0000      0.0000
       4      0.0000      0.0000          0.0000      0.0000

             WFN1 Final Correlation function energies and occupations
             --------------------------------------------------------

              Alpha       Beta            Alpha       Beta  
            --------    --------        --------    --------
       1      0.0000      0.0000          1.0000      0.0000
       2      0.0000      0.0000          1.0000      0.0000
       3      0.0000      0.0000          0.0000      0.0000
       4      0.0000      0.0000          0.0000      0.0000

                WFN1 Final alpha-alpha 2-matrix occupation numbers
                --------------------------------------------------


 global array: g_momo1[1:4,1:4],  handle: -990 

            1           2           3           4  
       ----------- ----------- ----------- -----------
   1       0.00000     1.00000     0.00000     0.00000
   2       1.00000     0.00000     0.00000     0.00000
   3       0.00000     0.00000     0.00000     0.00000
   4       0.00000     0.00000     0.00000    -0.00000

                 WFN1 Final beta-beta 2-matrix occupation numbers
                 ------------------------------------------------


 global array: g_momo2[1:4,1:4],  handle: -989 

            1           2           3           4  
       ----------- ----------- ----------- -----------
   1       0.00000     0.00000     0.00000     0.00000
   2       0.00000     0.00000     0.00000     0.00000
   3       0.00000     0.00000     0.00000     0.00000
   4       0.00000     0.00000     0.00000     0.00000

                  WFN1 Final alpha Correlation Function Analysis
                  ----------------------------------------------


 global array: Ca[1:4,1:4],  handle: -977 

                     1                       2                       3                       4  
       ----------------------- ----------------------- ----------------------- -----------------------
   1      -0.86248,    0.49738    -0.08748,   -0.03299    -0.00000,    0.00000    -0.00000,    0.00000
   2      -0.05944,   -0.07216    -0.19255,    0.97682     0.00000,    0.00000     0.00000,   -0.00000
   3       0.00000,    0.00000    -0.00000,   -0.00000     0.28059,    0.95968     0.01161,   -0.01188
   4       0.00000,   -0.00000     0.00000,    0.00000    -0.00003,    0.01661    -0.87232,    0.48865

                   WFN1 Final beta Correlation Function Analysis
                   ---------------------------------------------


 global array: Cb[1:4,1:4],  handle: -976 

                     1                       2                       3                       4  
       ----------------------- ----------------------- ----------------------- -----------------------
   1      -0.85534,    0.49489    -0.01048,   -0.04180    -0.11934,   -0.05057     0.04780,    0.05049
   2      -0.01991,    0.04849    -0.20479,    0.90471     0.15957,   -0.32931    -0.05322,   -0.00820
   3      -0.12333,   -0.03236     0.19192,    0.31566     0.27834,    0.87505     0.06377,    0.00301
   4       0.01020,    0.06620    -0.00321,   -0.03478     0.04350,    0.06490    -0.86815,    0.48426

                     WFN1 Final Alpha Natural Orbital Analysis
                     -----------------------------------------

 Vector    1  Occ=1.000000D+00  E= 0.000000D+00
              MO Center=  0.0D+00,  0.0D+00,  5.4D-02, r^2= 3.4D-01
   Bfn.  Coefficient  Atom+Function         Bfn.  Coefficient  Atom+Function  
  ----- ------------  ---------------      ----- ------------  ---------------
     3      0.487753  2 H  s                  4      0.469186  2 H  s          
     1      0.448767  1 H  s                  2     -0.337830  1 H  s          

 Vector    2  Occ=1.000000D+00  E= 0.000000D+00
              MO Center=  0.0D+00,  0.0D+00, -5.4D-02, r^2= 2.0D+00
   Bfn.  Coefficient  Atom+Function         Bfn.  Coefficient  Atom+Function  
  ----- ------------  ---------------      ----- ------------  ---------------
     2      4.020387  1 H  s                  4     -4.007182  2 H  s          
     1      0.240977  1 H  s                  3     -0.146828  2 H  s          

 Vector    3  Occ=6.897823D-13  E= 0.000000D+00
              MO Center=  0.0D+00,  0.0D+00,  1.7D-02, r^2= 1.7D+00
   Bfn.  Coefficient  Atom+Function         Bfn.  Coefficient  Atom+Function  
  ----- ------------  ---------------      ----- ------------  ---------------
     4     -0.745760  2 H  s                  2     -0.607922  1 H  s          
     3      0.574505  2 H  s                  1      0.464196  1 H  s          

 Vector    4  Occ=8.654309D-15  E= 0.000000D+00
              MO Center=  0.0D+00,  0.0D+00, -1.7D-02, r^2= 7.7D-01
   Bfn.  Coefficient  Atom+Function         Bfn.  Coefficient  Atom+Function  
  ----- ------------  ---------------      ----- ------------  ---------------
     2      2.655473  1 H  s                  4     -2.620105  2 H  s          
     1     -2.124524  1 H  s                  3      2.097385  2 H  s          


                     WFN1 Final Beta Natural Orbital Analysis
                     ----------------------------------------

 Vector    1  Occ=0.000000D+00  E= 0.000000D+00
              MO Center=  0.0D+00,  0.0D+00, -1.3D-01, r^2= 3.9D-01
   Bfn.  Coefficient  Atom+Function         Bfn.  Coefficient  Atom+Function  
  ----- ------------  ---------------      ----- ------------  ---------------
     1      0.693223  1 H  s                  2      0.344599  1 H  s          
     3      0.136950  2 H  s                  4     -0.095103  2 H  s          

 Vector    2  Occ=0.000000D+00  E= 0.000000D+00
              MO Center=  0.0D+00,  0.0D+00,  1.6D-01, r^2= 2.2D+00
   Bfn.  Coefficient  Atom+Function         Bfn.  Coefficient  Atom+Function  
  ----- ------------  ---------------      ----- ------------  ---------------
     4     -4.341075  2 H  s                  2      4.227598  1 H  s          
     1     -0.075794  1 H  s                  3      0.046120  2 H  s          

 Vector    3  Occ=0.000000D+00  E= 0.000000D+00
              MO Center=  0.0D+00,  0.0D+00, -4.3D-02, r^2= 1.6D+00
   Bfn.  Coefficient  Atom+Function         Bfn.  Coefficient  Atom+Function  
  ----- ------------  ---------------      ----- ------------  ---------------
     2     -0.752657  1 H  s                  3      0.731506  2 H  s          
     4     -0.572424  2 H  s                  1      0.397678  1 H  s          

 Vector    4  Occ=0.000000D+00  E= 0.000000D+00
              MO Center=  0.0D+00,  0.0D+00,  1.1D-02, r^2= 6.3D-01
   Bfn.  Coefficient  Atom+Function         Bfn.  Coefficient  Atom+Function  
  ----- ------------  ---------------      ----- ------------  ---------------
     2      2.267360  1 H  s                  4     -2.125349  2 H  s          
     3      2.105364  2 H  s                  1     -2.084248  1 H  s          


 Task  times  cpu:       19.6s     wall:       29.5s
 Summary of allocated global arrays
-----------------------------------
  No active global arrays



                         GA Statistics for process    0
                         ------------------------------

       create   destroy   get      put      acc     scatter   gather  read&inc
calls:   44       44     1.05e+07 3.63e+04 2.88e+04    0        0       11     
number of processes/call 1.00e+00 1.00e+00 1.00e+00 0.00e+00 0.00e+00
bytes total:             1.35e+09 6.44e+06 4.60e+06 0.00e+00 0.00e+00 8.80e+01
bytes remote:            0.00e+00 0.00e+00 0.00e+00 0.00e+00 0.00e+00 0.00e+00
Max memory consumed for GA by this process: 10624 bytes
MA_summarize_allocated_blocks: starting scan ...
MA_summarize_allocated_blocks: scan completed: 0 heap blocks, 0 stack blocks
MA usage statistics:

	allocation statistics:
					      heap	     stack
					      ----	     -----
	current number of blocks	         0	         0
	maximum number of blocks	        19	        17
	current total bytes		         0	         0
	maximum total bytes		   3204328	  22508616
	maximum total K-bytes		      3205	     22509
	maximum total M-bytes		         4	        23


                                NWChem Input Module
                                -------------------





                                     CITATION
                                     --------
                Please cite the following reference when publishing
                           results obtained with NWChem:

                 M. Valiev, E.J. Bylaska, N. Govind, K. Kowalski,
              T.P. Straatsma, H.J.J. van Dam, D. Wang, J. Nieplocha,
                        E. Apra, T.L. Windus, W.A. de Jong
                 "NWChem: a comprehensive and scalable open-source
                  solution for large scale molecular simulations"
                      Comput. Phys. Commun. 181, 1477 (2010)
                           doi:10.1016/j.cpc.2010.04.018

                                      AUTHORS
                                      -------
          E. Apra, E. J. Bylaska, W. A. de Jong, N. Govind, K. Kowalski,
       T. P. Straatsma, M. Valiev, H. J. J. van Dam, D. Wang, T. L. Windus,
        J. Hammond, J. Autschbach, K. Bhaskaran-Nair, J. Brabec, K. Lopata,
    S. A. Fischer, S. Krishnamoorthy, M. Jacquelin, W. Ma, M. Klemm, O. Villa,
      Y. Chen, V. Anisimov, F. Aquino, S. Hirata, M. T. Hackler, V. Konjkov,
      T. Risthaus, M. Malagoli, A. Marenich, A. Otero-de-la-Roza, J. Mullin,
        P. Nichols, R. Peverati, J. Pittner, Y. Zhao, P.-D. Fan, A. Fonari,
       M. Williamson, R. J. Harrison, J. R. Rehr, M. Dupuis, D. Silverstein,
    D. M. A. Smith, J. Nieplocha, V. Tipparaju, M. Krishnan, B. E. Van Kuiken,
        A. Vazquez-Mayagoitia, L. Jensen, M. Swart, Q. Wu, T. Van Voorhis,
     A. A. Auer, M. Nooijen, L. D. Crosby, E. Brown, G. Cisneros, G. I. Fann,
   H. Fruchtl, J. Garza, K. Hirao, R. A. Kendall, J. A. Nichols, K. Tsemekhman,
    K. Wolinski, J. Anchell, D. E. Bernholdt, P. Borowski, T. Clark, D. Clerc,
   H. Dachsel, M. J. O. Deegan, K. Dyall, D. Elwood, E. Glendening, M. Gutowski,
   A. C. Hess, J. Jaffe, B. G. Johnson, J. Ju, R. Kobayashi, R. Kutteh, Z. Lin,
   R. Littlefield, X. Long, B. Meng, T. Nakajima, S. Niu, L. Pollack, M. Rosing,
   K. Glaesemann, G. Sandrone, M. Stave, H. Taylor, G. Thomas, J. H. van Lenthe,
                               A. T. Wong, Z. Zhang.

 Total times  cpu:       19.6s     wall:       29.5s
