 argument  1 = input-wf.nw



============================== echo of input deck ==============================
echo
start wfn1_dat
geometry units au noautoz
  H 0 0 -.84434600000000000000
  H 0 0  .84434600000000000000
  symmetry cs
end
basis
  H library 6-31g
end
set wfn1:input_vectors "atomic"
set wfn1:solver "monte-carlo"
set wfn1:print_error F
set wfn1:t_initial 0.1
set wfn1:nopen 2
#set wfn1:corr_expr "wfn1_mx"
set wfn1:corr_expr "wfn1c"
set wfn1:t_bath 0.0
set wfn1:maxit  20000
task wfn1 energy
================================================================================


                                         
                                         


              Northwest Computational Chemistry Package (NWChem) 6.8
              ------------------------------------------------------


                    Environmental Molecular Sciences Laboratory
                       Pacific Northwest National Laboratory
                                Richland, WA 99352

                              Copyright (c) 1994-2015
                       Pacific Northwest National Laboratory
                            Battelle Memorial Institute

             NWChem is an open-source computational chemistry package
                        distributed under the terms of the
                      Educational Community License (ECL) 2.0
             A copy of the license is included with this distribution
                              in the LICENSE.TXT file

                                  ACKNOWLEDGMENT
                                  --------------

            This software and its documentation were developed at the
            EMSL at Pacific Northwest National Laboratory, a multiprogram
            national laboratory, operated for the U.S. Department of Energy
            by Battelle under Contract Number DE-AC05-76RL01830. Support
            for this work was provided by the Department of Energy Office
            of Biological and Environmental Research, Office of Basic
            Energy Sciences, and the Office of Advanced Scientific Computing.


           Job information
           ---------------

    hostname        = erato
    program         = ../../../bin/LINUX64/nwchem
    date            = Sat Mar  6 01:18:39 2021

    compiled        = Sat_Mar_06_01:07:04_2021
    source          = /home/hvandam/nwchem-1-wfn1
    nwchem branch   = Development
    nwchem revision = nwchem_on_git-124-gad72d19fff205e319ffbbf2bca37a04ded6ad57b
    ga revision     = nwchem_on_git-124-gad72d19
    use scalapack   = F
    input           = input-wf.nw
    prefix          = wfn1_dat.
    data base       = ./wfn1_dat.db
    status          = startup
    nproc           =        1
    time left       =     -1s



           Memory information
           ------------------

    heap     =   13107200 doubles =    100.0 Mbytes
    stack    =   13107197 doubles =    100.0 Mbytes
    global   =   26214400 doubles =    200.0 Mbytes (distinct from heap & stack)
    total    =   52428797 doubles =    400.0 Mbytes
    verify   = yes
    hardfail = no 


           Directory information
           ---------------------

  0 permanent = .
  0 scratch   = .




                                NWChem Input Module
                                -------------------


 Turning off AUTOSYM since
 SYMMETRY directive was detected!



                             Geometry "geometry" -> ""
                             -------------------------

 Output coordinates in a.u. (scale by  1.000000000 to convert to a.u.)

  No.       Tag          Charge          X              Y              Z
 ---- ---------------- ---------- -------------- -------------- --------------
    1 H                    1.0000     0.00000000     0.00000000    -0.84434600
    2 H                    1.0000     0.00000000     0.00000000     0.84434600

      Atomic Mass 
      ----------- 

      H                  1.007825


 Effective nuclear repulsion energy (a.u.)       0.5921742982

            Nuclear Dipole moment (a.u.) 
            ----------------------------
        X                 Y               Z
 ---------------- ---------------- ----------------
     0.0000000000     0.0000000000     0.0000000000

      Symmetry information
      --------------------

 Group name             Cs        
 Group number              2
 Group order               2
 No. of unique centers     1

      Symmetry unique atoms

     1


            XYZ format geometry
            -------------------
     2
 geometry
 H                     0.00000000     0.00000000    -0.44680869
 H                     0.00000000     0.00000000     0.44680869

                      Basis "ao basis" -> "" (cartesian)
                      -----
  H (Hydrogen)
  ------------
            Exponent  Coefficients 
       -------------- ---------------------------------------------------------
  1 S  1.87311370E+01  0.033495
  1 S  2.82539370E+00  0.234727
  1 S  6.40121700E-01  0.813757

  2 S  1.61277800E-01  1.000000



 Summary of "ao basis" -> "" (cartesian)
 ------------------------------------------------------------------------------
       Tag                 Description            Shells   Functions and Types
 ---------------- ------------------------------  ------  ---------------------
 H                           6-31g                   2        2   2s



                                NWChem WFN1 Module
                                ------------------



          No. of electrons :     2
           Alpha electrons :     2
            Beta electrons :     0
          Charge           :     0
          Spin multiplicity:     3

 HvD: wfn1_inpdft
 HvD: nquad_task =                     1
 HvD: iangquad   =                     0
 HvD: gridtype   = user      
 HvD: leb        =  T
 HvD: radgrid    = murakn    
 HvD: trunc_neigh=  T
 HvD: lssw       =  T
 HvD: whichssw   = erf1    
 HvD: mxnrad     =                     0
 HvD: mxnang     =                     0
 HVD: wfn1: movecs_in  = atomic                                                                                                                                                                                                                                                          
 HVD: wfn1: movecs_out = ./wfn1_dat.movecs                                                                                                                                                                                                                                               

      Superposition of Atomic Density Guess
      -------------------------------------

 Sum of atomic energies:          -0.99646508

      Non-variational initial energy
      ------------------------------

 Total energy =      -0.826223
 1-e energy   =      -2.075246
 2-e energy   =       0.656848
 HOMO         =      -0.511319
 LUMO         =       0.131033

 iteration              energy           error
 ---------              ------           -----
         0         -0.80776349        0.080000
         1         -0.80829672        0.080000
         2         -0.81100292        0.080000
         3         -0.81165713        0.080000
         4         -0.81193648        0.080000
         5         -0.81238035        0.080000
         6         -0.81491259        0.080000
         7         -0.81681141        0.080000
         8         -0.81751543        0.080000
         9         -0.81860663        0.080000
        10         -0.81962545        0.080000
        11         -0.81983769        0.080000
        12         -0.82054423        0.080000
        13         -0.82230591        0.080000
        14         -0.82230684        0.080000
        15         -0.82284991        0.080000
        16         -0.82448880        0.080000
        17         -0.82538325        0.080000
        18         -0.82607060        0.080000
        19         -0.82610241        0.080000
        20         -0.82617142        0.080000
        21         -0.82650581        0.080000
        22         -0.82672206        0.080000
        23         -0.82701105        0.080000
        24         -0.82794850        0.080000
        25         -0.82817622        0.080000
        26         -0.82821714        0.080000
        27         -0.82838421        0.080000
        28         -0.82861957        0.080000
        29         -0.82866667        0.080000
        30         -0.82879933        0.080000
        31         -0.82896685        0.080000
        32         -0.82897607        0.080000
        33         -0.82903280        0.071242
        34         -0.82904682        0.071242
        35         -0.82906767        0.053369
        36         -0.82909909        0.053369
        37         -0.82913189        0.046639
        38         -0.82913487        0.046639
        39         -0.82915156        0.046639
        40         -0.82917326        0.034272
        41         -0.82918379        0.030532
        42         -0.82918829        0.030532
        43         -0.82919165        0.015562
        44         -0.82919172        0.015562
        45         -0.82919461        0.015562
        46         -0.82919462        0.013600
        47         -0.82919475        0.013600
        48         -0.82919563        0.013600
        49         -0.82919581        0.013600
        50         -0.82919591        0.013600
        51         -0.82919693        0.013600
        52         -0.82919737        0.007204
        53         -0.82919798        0.007204
        54         -0.82919857        0.006799
        55         -0.82919857        0.005942
        56         -0.82919881        0.005093
        57         -0.82919894        0.005093
        58         -0.82919922        0.005093
        59         -0.82919950        0.004366
        60         -0.82919960        0.003890
        61         -0.82919967        0.003890
        62         -0.82919974        0.003890
        63         -0.82920005        0.003890
        64         -0.82920005        0.002358
        65         -0.82920008        0.002358
        66         -0.82920013        0.002358
        67         -0.82920017        0.002141
        68         -0.82920019        0.002141
        69         -0.82920022        0.001604
        70         -0.82920022        0.001179
        71         -0.82920023        0.001179
        72         -0.82920023        0.001179
        73         -0.82920024        0.001179
        74         -0.82920024        0.001010
        75         -0.82920025        0.000772
        76         -0.82920025        0.000772
        77         -0.82920025        0.000661
        78         -0.82920026        0.000661
        79         -0.82920028        0.000661
        80         -0.82920028        0.000578
        81         -0.82920028        0.000578
        82         -0.82920028        0.000578
        83         -0.82920028        0.000578
        84         -0.82920028        0.000433
        85         -0.82920029        0.000331
        86         -0.82920029        0.000331
        87         -0.82920029        0.000283
        88         -0.82920029        0.000283
        89         -0.82920029        0.000208
        90         -0.82920029        0.000129
        91         -0.82920029        0.000110
        92         -0.82920029        0.000110
        93         -0.82920029        0.000110
        94         -0.82920029        0.000110
        95         -0.82920029        0.000080
        96         -0.82920029        0.000080
        97         -0.82920029        0.000080
        98         -0.82920029        0.000072
        99         -0.82920029        0.000072
       100         -0.82920029        0.000072
       101         -0.82920029        0.000054
       102         -0.82920029        0.000041
       103         -0.82920029        0.000041
       104         -0.82920029        0.000041
       105         -0.82920029        0.000035
       106         -0.82920029        0.000035
       107         -0.82920029        0.000035
       108         -0.82920029        0.000035
       109         -0.82920029        0.000035
       110         -0.82920029        0.000035
       111         -0.82920029        0.000035
       112         -0.82920029        0.000035
       113         -0.82920029        0.000018
       114         -0.82920029        0.000015
       115         -0.82920029        0.000009
       116         -0.82920029        0.000008
       117         -0.82920029        0.000008
       118         -0.82920029        0.000008
       119         -0.82920029        0.000008
       120         -0.82920029        0.000007
       121         -0.82920029        0.000006
       122         -0.82920029        0.000004
       123         -0.82920029        0.000004
       124         -0.82920029        0.000004
       125         -0.82920029        0.000004
       126         -0.82920029        0.000004
       127         -0.82920029        0.000003
       128         -0.82920029        0.000003
       129         -0.82920029        0.000003
       130         -0.82920029        0.000003
       131         -0.82920029        0.000003
       132         -0.82920029        0.000003
       133         -0.82920029        0.000003
       134         -0.82920029        0.000002
       135         -0.82920029        0.000002
       136         -0.82920029        0.000002
       137         -0.82920029        0.000002
       138         -0.82920029        0.000002
       139         -0.82920029        0.000002
       140         -0.82920029        0.000001
       141         -0.82920029        0.000001
       142         -0.82920029        0.000001

 Reached Convergence

 WFN1                     :
 --------------------------
 Total WFN1 energy  =          -0.8292002888
 1-Electron energy  =          -1.7947539735
 2-Electron energy  =           0.3733793864
 Correlation energy =           0.0000000000
 DFT XC energy      =           0.0000000000
 Entropy energy     =           0.0000000000
 Nuclear energy     =           0.5921742982

 conventional Hartree-Fock:
 --------------------------
 Total SCF energy  =          -0.8292002888
 2-Electron energy =           0.3733793864

                WFN1 Final Natural orbital energies and occupations
                ---------------------------------------------------

              Alpha       Beta            Alpha       Beta  
            --------    --------        --------    --------
       1      0.0000      0.0000          1.0000      0.0000
       2      0.0000      0.0000          1.0000      0.0000
       3      0.0000      0.0000          0.0000      0.0000
       4      0.0000      0.0000          0.0000      0.0000

             WFN1 Final Correlation function energies and occupations
             --------------------------------------------------------

              Alpha       Beta            Alpha       Beta  
            --------    --------        --------    --------
       1      0.0000      0.0000          1.0000      0.0000
       2      0.0000      0.0000          1.0000      0.0000
       3      0.0000      0.0000          0.0000      0.0000
       4      0.0000      0.0000          0.0000      0.0000

                WFN1 Final alpha-alpha 2-matrix occupation numbers
                --------------------------------------------------


 global array: g_momo1[1:4,1:4],  handle: -990 

            1           2           3           4  
       ----------- ----------- ----------- -----------
   1       0.00000     1.00000     0.00000     0.00000
   2       1.00000    -0.00000     0.00000     0.00000
   3       0.00000     0.00000    -0.00000     0.00000
   4       0.00000     0.00000     0.00000     0.00000

                 WFN1 Final beta-beta 2-matrix occupation numbers
                 ------------------------------------------------


 global array: g_momo2[1:4,1:4],  handle: -989 

            1           2           3           4  
       ----------- ----------- ----------- -----------
   1       0.00000     0.00000     0.00000     0.00000
   2       0.00000     0.00000     0.00000     0.00000
   3       0.00000     0.00000     0.00000     0.00000
   4       0.00000     0.00000     0.00000     0.00000

                  WFN1 Final alpha Correlation Function Analysis
                  ----------------------------------------------


 global array: Ca[1:4,1:4],  handle: -981 

                     1                       2                       3                       4  
       ----------------------- ----------------------- ----------------------- -----------------------
   1       0.80641,    0.59013    -0.00487,    0.03760     0.00000,   -0.00000     0.00000,   -0.00000
   2       0.03623,    0.01117    -0.20219,   -0.97861    -0.00000,   -0.00000    -0.00000,    0.00000
   3       0.00000,    0.00000    -0.00000,   -0.00000    -0.40174,    0.89341     0.09731,   -0.17594
   4      -0.00000,    0.00000    -0.00000,    0.00000    -0.14007,   -0.14425    -0.62208,   -0.75669

                   WFN1 Final beta Correlation Function Analysis
                   ---------------------------------------------


 global array: Cb[1:4,1:4],  handle: -980 

                     1                       2                       3                       4  
       ----------------------- ----------------------- ----------------------- -----------------------
   1       0.79328,    0.58027    -0.04117,   -0.07563     0.10862,    0.06353    -0.05342,    0.08883
   2      -0.04423,   -0.07675    -0.20203,   -0.97223    -0.00741,    0.04125    -0.02553,   -0.06087
   3       0.07188,   -0.08806    -0.02056,    0.05016    -0.41678,    0.88693     0.13294,   -0.07823
   4       0.10481,   -0.04733     0.01559,    0.05799    -0.13918,   -0.05189    -0.63647,   -0.74566

                     WFN1 Final Alpha Natural Orbital Analysis
                     -----------------------------------------

 Vector    1  Occ=1.000000D+00  E= 0.000000D+00
              MO Center=  0.0D+00,  0.0D+00, -4.0D-02, r^2= 7.4D-01
   Bfn.  Coefficient  Atom+Function         Bfn.  Coefficient  Atom+Function  
  ----- ------------  ---------------      ----- ------------  ---------------
     1     -0.372980  1 H  s                  3     -0.351996  2 H  s          
     2     -0.297102  1 H  s                  4     -0.216265  2 H  s          

 Vector    2  Occ=1.000000D+00  E= 0.000000D+00
              MO Center=  0.0D+00,  0.0D+00,  4.0D-02, r^2= 1.7D+00
   Bfn.  Coefficient  Atom+Function         Bfn.  Coefficient  Atom+Function  
  ----- ------------  ---------------      ----- ------------  ---------------
     4     -1.190627  2 H  s                  2      1.173070  1 H  s          
     3     -0.319173  2 H  s                  1      0.294380  1 H  s          

 Vector    3  Occ=3.934708D-15  E= 0.000000D+00
              MO Center=  0.0D+00,  0.0D+00, -3.5D-02, r^2= 1.7D+00
   Bfn.  Coefficient  Atom+Function         Bfn.  Coefficient  Atom+Function  
  ----- ------------  ---------------      ----- ------------  ---------------
     1      0.832112  1 H  s                  3      0.779065  2 H  s          
     2     -0.754170  1 H  s                  4     -0.676239  2 H  s          

 Vector    4  Occ=2.405963D-14  E= 0.000000D+00
              MO Center=  0.0D+00,  0.0D+00,  3.5D-02, r^2= 1.6D+00
   Bfn.  Coefficient  Atom+Function         Bfn.  Coefficient  Atom+Function  
  ----- ------------  ---------------      ----- ------------  ---------------
     4      1.471871  2 H  s                  2     -1.433503  1 H  s          
     3     -1.010453  2 H  s                  1      0.967236  1 H  s          


                     WFN1 Final Beta Natural Orbital Analysis
                     ----------------------------------------

 Vector    1  Occ=0.000000D+00  E= 0.000000D+00
              MO Center=  0.0D+00,  0.0D+00,  1.4D-02, r^2= 9.2D-01
   Bfn.  Coefficient  Atom+Function         Bfn.  Coefficient  Atom+Function  
  ----- ------------  ---------------      ----- ------------  ---------------
     4     -0.388052  2 H  s                  2     -0.290873  1 H  s          
     1     -0.287483  1 H  s                  3     -0.242147  2 H  s          

 Vector    2  Occ=0.000000D+00  E= 0.000000D+00
              MO Center=  0.0D+00,  0.0D+00, -1.6D-02, r^2= 1.9D+00
   Bfn.  Coefficient  Atom+Function         Bfn.  Coefficient  Atom+Function  
  ----- ------------  ---------------      ----- ------------  ---------------
     2      1.322491  1 H  s                  4     -1.311577  2 H  s          
     1      0.211482  1 H  s                  3     -0.208812  2 H  s          

 Vector    3  Occ=0.000000D+00  E= 0.000000D+00
              MO Center=  0.0D+00,  0.0D+00,  2.3D-02, r^2= 1.5D+00
   Bfn.  Coefficient  Atom+Function         Bfn.  Coefficient  Atom+Function  
  ----- ------------  ---------------      ----- ------------  ---------------
     3      0.860386  2 H  s                  1      0.825788  1 H  s          
     4     -0.705939  2 H  s                  2     -0.653724  1 H  s          

 Vector    4  Occ=0.000000D+00  E= 0.000000D+00
              MO Center=  0.0D+00,  0.0D+00, -2.1D-02, r^2= 1.3D+00
   Bfn.  Coefficient  Atom+Function         Bfn.  Coefficient  Atom+Function  
  ----- ------------  ---------------      ----- ------------  ---------------
     2     -1.351711  1 H  s                  4      1.311067  2 H  s          
     1      1.021976  1 H  s                  3     -1.005599  2 H  s          


 Task  times  cpu:       14.6s     wall:       21.1s
 Summary of allocated global arrays
-----------------------------------
  No active global arrays



                         GA Statistics for process    0
                         ------------------------------

       create   destroy   get      put      acc     scatter   gather  read&inc
calls:   44       44     8.01e+06 2.77e+04 2.19e+04    0        0       11     
number of processes/call 1.00e+00 1.00e+00 1.00e+00 0.00e+00 0.00e+00
bytes total:             1.03e+09 4.90e+06 3.50e+06 0.00e+00 0.00e+00 8.80e+01
bytes remote:            0.00e+00 0.00e+00 0.00e+00 0.00e+00 0.00e+00 0.00e+00
Max memory consumed for GA by this process: 10624 bytes
MA_summarize_allocated_blocks: starting scan ...
MA_summarize_allocated_blocks: scan completed: 0 heap blocks, 0 stack blocks
MA usage statistics:

	allocation statistics:
					      heap	     stack
					      ----	     -----
	current number of blocks	         0	         0
	maximum number of blocks	        19	        17
	current total bytes		         0	         0
	maximum total bytes		   3204328	  22508616
	maximum total K-bytes		      3205	     22509
	maximum total M-bytes		         4	        23


                                NWChem Input Module
                                -------------------





                                     CITATION
                                     --------
                Please cite the following reference when publishing
                           results obtained with NWChem:

                 M. Valiev, E.J. Bylaska, N. Govind, K. Kowalski,
              T.P. Straatsma, H.J.J. van Dam, D. Wang, J. Nieplocha,
                        E. Apra, T.L. Windus, W.A. de Jong
                 "NWChem: a comprehensive and scalable open-source
                  solution for large scale molecular simulations"
                      Comput. Phys. Commun. 181, 1477 (2010)
                           doi:10.1016/j.cpc.2010.04.018

                                      AUTHORS
                                      -------
          E. Apra, E. J. Bylaska, W. A. de Jong, N. Govind, K. Kowalski,
       T. P. Straatsma, M. Valiev, H. J. J. van Dam, D. Wang, T. L. Windus,
        J. Hammond, J. Autschbach, K. Bhaskaran-Nair, J. Brabec, K. Lopata,
    S. A. Fischer, S. Krishnamoorthy, M. Jacquelin, W. Ma, M. Klemm, O. Villa,
      Y. Chen, V. Anisimov, F. Aquino, S. Hirata, M. T. Hackler, V. Konjkov,
      T. Risthaus, M. Malagoli, A. Marenich, A. Otero-de-la-Roza, J. Mullin,
        P. Nichols, R. Peverati, J. Pittner, Y. Zhao, P.-D. Fan, A. Fonari,
       M. Williamson, R. J. Harrison, J. R. Rehr, M. Dupuis, D. Silverstein,
    D. M. A. Smith, J. Nieplocha, V. Tipparaju, M. Krishnan, B. E. Van Kuiken,
        A. Vazquez-Mayagoitia, L. Jensen, M. Swart, Q. Wu, T. Van Voorhis,
     A. A. Auer, M. Nooijen, L. D. Crosby, E. Brown, G. Cisneros, G. I. Fann,
   H. Fruchtl, J. Garza, K. Hirao, R. A. Kendall, J. A. Nichols, K. Tsemekhman,
    K. Wolinski, J. Anchell, D. E. Bernholdt, P. Borowski, T. Clark, D. Clerc,
   H. Dachsel, M. J. O. Deegan, K. Dyall, D. Elwood, E. Glendening, M. Gutowski,
   A. C. Hess, J. Jaffe, B. G. Johnson, J. Ju, R. Kobayashi, R. Kutteh, Z. Lin,
   R. Littlefield, X. Long, B. Meng, T. Nakajima, S. Niu, L. Pollack, M. Rosing,
   K. Glaesemann, G. Sandrone, M. Stave, H. Taylor, G. Thomas, J. H. van Lenthe,
                               A. T. Wong, Z. Zhang.

 Total times  cpu:       14.6s     wall:       21.1s
