 argument  1 = input-wf.nw



============================== echo of input deck ==============================
echo
start wfn1_dat
geometry units au noautoz
  H 0 0 -4.29434600000000000000
  H 0 0  4.29434600000000000000
  symmetry cs
end
basis
  H library 6-31g
end
set wfn1:input_vectors "atomic"
set wfn1:solver "monte-carlo"
set wfn1:print_error F
set wfn1:t_initial 0.1
set wfn1:nopen 2
#set wfn1:corr_expr "wfn1_mx"
set wfn1:corr_expr "wfn1c"
set wfn1:t_bath 0.0
set wfn1:maxit  20000
task wfn1 energy
================================================================================


                                         
                                         


              Northwest Computational Chemistry Package (NWChem) 6.8
              ------------------------------------------------------


                    Environmental Molecular Sciences Laboratory
                       Pacific Northwest National Laboratory
                                Richland, WA 99352

                              Copyright (c) 1994-2015
                       Pacific Northwest National Laboratory
                            Battelle Memorial Institute

             NWChem is an open-source computational chemistry package
                        distributed under the terms of the
                      Educational Community License (ECL) 2.0
             A copy of the license is included with this distribution
                              in the LICENSE.TXT file

                                  ACKNOWLEDGMENT
                                  --------------

            This software and its documentation were developed at the
            EMSL at Pacific Northwest National Laboratory, a multiprogram
            national laboratory, operated for the U.S. Department of Energy
            by Battelle under Contract Number DE-AC05-76RL01830. Support
            for this work was provided by the Department of Energy Office
            of Biological and Environmental Research, Office of Basic
            Energy Sciences, and the Office of Advanced Scientific Computing.


           Job information
           ---------------

    hostname        = erato
    program         = ../../../bin/LINUX64/nwchem
    date            = Sat Mar  6 01:43:31 2021

    compiled        = Sat_Mar_06_01:07:04_2021
    source          = /home/hvandam/nwchem-1-wfn1
    nwchem branch   = Development
    nwchem revision = nwchem_on_git-124-gad72d19fff205e319ffbbf2bca37a04ded6ad57b
    ga revision     = nwchem_on_git-124-gad72d19
    use scalapack   = F
    input           = input-wf.nw
    prefix          = wfn1_dat.
    data base       = ./wfn1_dat.db
    status          = startup
    nproc           =        1
    time left       =     -1s



           Memory information
           ------------------

    heap     =   13107200 doubles =    100.0 Mbytes
    stack    =   13107197 doubles =    100.0 Mbytes
    global   =   26214400 doubles =    200.0 Mbytes (distinct from heap & stack)
    total    =   52428797 doubles =    400.0 Mbytes
    verify   = yes
    hardfail = no 


           Directory information
           ---------------------

  0 permanent = .
  0 scratch   = .




                                NWChem Input Module
                                -------------------


 Turning off AUTOSYM since
 SYMMETRY directive was detected!



                             Geometry "geometry" -> ""
                             -------------------------

 Output coordinates in a.u. (scale by  1.000000000 to convert to a.u.)

  No.       Tag          Charge          X              Y              Z
 ---- ---------------- ---------- -------------- -------------- --------------
    1 H                    1.0000     0.00000000     0.00000000    -4.29434600
    2 H                    1.0000     0.00000000     0.00000000     4.29434600

      Atomic Mass 
      ----------- 

      H                  1.007825


 Effective nuclear repulsion energy (a.u.)       0.1164321645

            Nuclear Dipole moment (a.u.) 
            ----------------------------
        X                 Y               Z
 ---------------- ---------------- ----------------
     0.0000000000     0.0000000000     0.0000000000

      Symmetry information
      --------------------

 Group name             Cs        
 Group number              2
 Group order               2
 No. of unique centers     1

      Symmetry unique atoms

     1


            XYZ format geometry
            -------------------
     2
 geometry
 H                     0.00000000     0.00000000    -2.27247020
 H                     0.00000000     0.00000000     2.27247020

                      Basis "ao basis" -> "" (cartesian)
                      -----
  H (Hydrogen)
  ------------
            Exponent  Coefficients 
       -------------- ---------------------------------------------------------
  1 S  1.87311370E+01  0.033495
  1 S  2.82539370E+00  0.234727
  1 S  6.40121700E-01  0.813757

  2 S  1.61277800E-01  1.000000



 Summary of "ao basis" -> "" (cartesian)
 ------------------------------------------------------------------------------
       Tag                 Description            Shells   Functions and Types
 ---------------- ------------------------------  ------  ---------------------
 H                           6-31g                   2        2   2s



                                NWChem WFN1 Module
                                ------------------



          No. of electrons :     2
           Alpha electrons :     2
            Beta electrons :     0
          Charge           :     0
          Spin multiplicity:     3

 HvD: wfn1_inpdft
 HvD: nquad_task =                     1
 HvD: iangquad   =                     0
 HvD: gridtype   = user      
 HvD: leb        =  T
 HvD: radgrid    = murakn    
 HvD: trunc_neigh=  T
 HvD: lssw       =  T
 HvD: whichssw   = erf1    
 HvD: mxnrad     =                     0
 HvD: mxnang     =                     0
 HVD: wfn1: movecs_in  = atomic                                                                                                                                                                                                                                                          
 HVD: wfn1: movecs_out = ./wfn1_dat.movecs                                                                                                                                                                                                                                               

      Superposition of Atomic Density Guess
      -------------------------------------

 Sum of atomic energies:          -0.99646508

      Non-variational initial energy
      ------------------------------

 Total energy =      -0.682110
 1-e energy   =      -1.229330
 2-e energy   =       0.430788
 HOMO         =      -0.192324
 LUMO         =      -0.190048

 iteration              energy           error
 ---------              ------           -----
         0         -0.98469737        0.080000
         1         -0.98500619        0.080000
         2         -0.98523478        0.080000
         3         -0.98705287        0.080000
         4         -0.98836643        0.080000
         5         -0.98857831        0.080000
         6         -0.98860093        0.080000
         7         -0.98914058        0.080000
         8         -0.98940102        0.080000
         9         -0.98969584        0.080000
        10         -0.99070768        0.080000
        11         -0.99182499        0.080000
        12         -0.99244227        0.080000
        13         -0.99247249        0.080000
        14         -0.99264969        0.080000
        15         -0.99334939        0.080000
        16         -0.99350248        0.080000
        17         -0.99378472        0.080000
        18         -0.99473909        0.080000
        19         -0.99490324        0.080000
        20         -0.99492064        0.080000
        21         -0.99517998        0.080000
        22         -0.99526430        0.080000
        23         -0.99598384        0.080000
        24         -0.99610779        0.080000
        25         -0.99614760        0.080000
        26         -0.99615646        0.075485
        27         -0.99629774        0.075485
        28         -0.99633227        0.075485
        29         -0.99634833        0.065965
        30         -0.99637366        0.049416
        31         -0.99641480        0.042361
        32         -0.99642845        0.042361
        33         -0.99642948        0.030536
        34         -0.99643342        0.026685
        35         -0.99643431        0.026685
        36         -0.99643477        0.022875
        37         -0.99644625        0.019990
        38         -0.99644835        0.019990
        39         -0.99645024        0.017136
        40         -0.99645332        0.017136
        41         -0.99645372        0.014975
        42         -0.99645620        0.014975
        43         -0.99645674        0.011004
        44         -0.99645808        0.011004
        45         -0.99645882        0.011004
        46         -0.99645912        0.011004
        47         -0.99645913        0.011004
        48         -0.99646181        0.011004
        49         -0.99646300        0.009617
        50         -0.99646421        0.007632
        51         -0.99646421        0.006542
        52         -0.99646437        0.006542
        53         -0.99646440        0.006542
        54         -0.99646455        0.004716
        55         -0.99646456        0.003533
        56         -0.99646466        0.003533
        57         -0.99646473        0.003533
        58         -0.99646479        0.003533
        59         -0.99646524        0.003533
        60         -0.99646544        0.003533
        61         -0.99646546        0.003533
        62         -0.99646562        0.003029
        63         -0.99646563        0.002060
        64         -0.99646564        0.002060
        65         -0.99646573        0.001766
        66         -0.99646574        0.001543
        67         -0.99646576        0.001323
        68         -0.99646578        0.001323
        69         -0.99646578        0.001134
        70         -0.99646580        0.000991
        71         -0.99646580        0.000850
        72         -0.99646581        0.000850
        73         -0.99646582        0.000728
        74         -0.99646582        0.000535
        75         -0.99646582        0.000535
        76         -0.99646582        0.000535
        77         -0.99646582        0.000273
        78         -0.99646582        0.000273
        79         -0.99646582        0.000243
        80         -0.99646582        0.000212
        81         -0.99646582        0.000212
        82         -0.99646582        0.000182
        83         -0.99646582        0.000182
        84         -0.99646582        0.000159
        85         -0.99646582        0.000159
        86         -0.99646582        0.000139
        87         -0.99646582        0.000139
        88         -0.99646583        0.000122
        89         -0.99646583        0.000106
        90         -0.99646583        0.000106
        91         -0.99646583        0.000091
        92         -0.99646583        0.000080
        93         -0.99646583        0.000057
        94         -0.99646583        0.000057
        95         -0.99646583        0.000057
        96         -0.99646583        0.000041
        97         -0.99646583        0.000037
        98         -0.99646583        0.000037
        99         -0.99646583        0.000037
       100         -0.99646583        0.000027
       101         -0.99646583        0.000027
       102         -0.99646583        0.000024
       103         -0.99646583        0.000015
       104         -0.99646583        0.000015
       105         -0.99646583        0.000015
       106         -0.99646583        0.000011
       107         -0.99646583        0.000011
       108         -0.99646583        0.000007
       109         -0.99646583        0.000006
       110         -0.99646583        0.000006
       111         -0.99646583        0.000005
       112         -0.99646583        0.000005
       113         -0.99646583        0.000004
       114         -0.99646583        0.000003
       115         -0.99646583        0.000003
       116         -0.99646583        0.000002
       117         -0.99646583        0.000002
       118         -0.99646583        0.000002
       119         -0.99646583        0.000002
       120         -0.99646583        0.000002
       121         -0.99646583        0.000002
       122         -0.99646583        0.000001
       123         -0.99646583        0.000001
       124         -0.99646583        0.000001
       125         -0.99646583        0.000001
       126         -0.99646583        0.000001
       127         -0.99646583        0.000001

 Reached Convergence

 WFN1                     :
 --------------------------
 Total WFN1 energy  =          -0.9964658256
 1-Electron energy  =          -1.2293305739
 2-Electron energy  =           0.1164325837
 Correlation energy =           0.0000000000
 DFT XC energy      =           0.0000000000
 Entropy energy     =           0.0000000000
 Nuclear energy     =           0.1164321645

 conventional Hartree-Fock:
 --------------------------
 Total SCF energy  =          -0.9964658256
 2-Electron energy =           0.1164325837

                WFN1 Final Natural orbital energies and occupations
                ---------------------------------------------------

              Alpha       Beta            Alpha       Beta  
            --------    --------        --------    --------
       1      0.0000      0.0000          1.0000      0.0000
       2      0.0000      0.0000          1.0000      0.0000
       3      0.0000      0.0000          0.0000      0.0000
       4      0.0000      0.0000          0.0000      0.0000

             WFN1 Final Correlation function energies and occupations
             --------------------------------------------------------

              Alpha       Beta            Alpha       Beta  
            --------    --------        --------    --------
       1      0.0000      0.0000          1.0000      0.0000
       2      0.0000      0.0000          1.0000      0.0000
       3      0.0000      0.0000          0.0000      0.0000
       4      0.0000      0.0000          0.0000      0.0000

                WFN1 Final alpha-alpha 2-matrix occupation numbers
                --------------------------------------------------


 global array: g_momo1[1:4,1:4],  handle: -990 

            1           2           3           4  
       ----------- ----------- ----------- -----------
   1       0.00000     1.00000     0.00000     0.00000
   2       1.00000     0.00000     0.00000     0.00000
   3       0.00000     0.00000     0.00000     0.00000
   4       0.00000     0.00000     0.00000     0.00000

                 WFN1 Final beta-beta 2-matrix occupation numbers
                 ------------------------------------------------


 global array: g_momo2[1:4,1:4],  handle: -989 

            1           2           3           4  
       ----------- ----------- ----------- -----------
   1       0.00000     0.00000     0.00000     0.00000
   2       0.00000     0.00000     0.00000     0.00000
   3       0.00000     0.00000     0.00000     0.00000
   4       0.00000     0.00000     0.00000     0.00000

                  WFN1 Final alpha Correlation Function Analysis
                  ----------------------------------------------


 global array: Ca[1:4,1:4],  handle: -977 

                     1                       2                       3                       4  
       ----------------------- ----------------------- ----------------------- -----------------------
   1      -0.07237,    0.73454    -0.06377,    0.67168    -0.00000,   -0.00000     0.00000,    0.00000
   2      -0.32031,    0.59382     0.34810,   -0.65085    -0.00000,    0.00000    -0.00000,   -0.00000
   3       0.00000,   -0.00000     0.00000,    0.00000    -0.69912,    0.14635    -0.68525,    0.14229
   4      -0.00000,   -0.00000    -0.00000,    0.00000    -0.50381,    0.48579     0.51498,   -0.49495

                   WFN1 Final beta Correlation Function Analysis
                   ---------------------------------------------


 global array: Cb[1:4,1:4],  handle: -976 

                     1                       2                       3                       4  
       ----------------------- ----------------------- ----------------------- -----------------------
   1      -0.09495,    0.69742    -0.09492,    0.69906    -0.08223,   -0.01078     0.00320,    0.00357
   2      -0.30614,    0.63831     0.30667,   -0.63424     0.02396,   -0.01475     0.03729,   -0.01838
   3      -0.03067,   -0.01378     0.01349,   -0.06704    -0.70873,    0.18091    -0.65566,    0.17112
   4      -0.02810,   -0.03881    -0.02858,   -0.02242    -0.51173,    0.44209     0.55287,   -0.48313

                     WFN1 Final Alpha Natural Orbital Analysis
                     -----------------------------------------

 Vector    1  Occ=1.000000D+00  E= 0.000000D+00
              MO Center=  0.0D+00,  0.0D+00,  1.4D-01, r^2= 5.9D+00
   Bfn.  Coefficient  Atom+Function         Bfn.  Coefficient  Atom+Function  
  ----- ------------  ---------------      ----- ------------  ---------------
     4     -0.485117  2 H  s                  2     -0.456067  1 H  s          
     3     -0.310672  2 H  s                  1     -0.291954  1 H  s          

 Vector    2  Occ=1.000000D+00  E= 0.000000D+00
              MO Center=  0.0D+00,  0.0D+00, -1.4D-01, r^2= 6.0D+00
   Bfn.  Coefficient  Atom+Function         Bfn.  Coefficient  Atom+Function  
  ----- ------------  ---------------      ----- ------------  ---------------
     2     -0.484585  1 H  s                  4      0.455502  2 H  s          
     1     -0.312189  1 H  s                  3      0.293567  2 H  s          

 Vector    3  Occ=1.182757D-14  E= 0.000000D+00
              MO Center=  0.0D+00,  0.0D+00,  2.4D-01, r^2= 6.3D+00
   Bfn.  Coefficient  Atom+Function         Bfn.  Coefficient  Atom+Function  
  ----- ------------  ---------------      ----- ------------  ---------------
     3      0.934377  2 H  s                  4     -0.852238  2 H  s          
     1      0.840612  1 H  s                  2     -0.766318  1 H  s          

 Vector    4  Occ=8.328356D-15  E= 0.000000D+00
              MO Center=  0.0D+00,  0.0D+00, -2.4D-01, r^2= 6.3D+00
   Bfn.  Coefficient  Atom+Function         Bfn.  Coefficient  Atom+Function  
  ----- ------------  ---------------      ----- ------------  ---------------
     1     -0.935650  1 H  s                  2      0.857161  1 H  s          
     3      0.842027  2 H  s                  4     -0.771789  2 H  s          


                     WFN1 Final Beta Natural Orbital Analysis
                     ----------------------------------------

 Vector    1  Occ=0.000000D+00  E= 0.000000D+00
              MO Center=  0.0D+00,  0.0D+00,  8.9D-02, r^2= 6.1D+00
   Bfn.  Coefficient  Atom+Function         Bfn.  Coefficient  Atom+Function  
  ----- ------------  ---------------      ----- ------------  ---------------
     2     -0.612918  1 H  s                  4     -0.502782  2 H  s          
     3     -0.281786  2 H  s                  1     -0.113023  1 H  s          

 Vector    2  Occ=0.000000D+00  E= 0.000000D+00
              MO Center=  0.0D+00,  0.0D+00, -1.1D-01, r^2= 6.1D+00
   Bfn.  Coefficient  Atom+Function         Bfn.  Coefficient  Atom+Function  
  ----- ------------  ---------------      ----- ------------  ---------------
     2     -0.535705  1 H  s                  4      0.512796  2 H  s          
     1     -0.249222  1 H  s                  3      0.234778  2 H  s          

 Vector    3  Occ=0.000000D+00  E= 0.000000D+00
              MO Center=  0.0D+00,  0.0D+00,  2.2D-01, r^2= 6.1D+00
   Bfn.  Coefficient  Atom+Function         Bfn.  Coefficient  Atom+Function  
  ----- ------------  ---------------      ----- ------------  ---------------
     3      0.960673  2 H  s                  1      0.869947  1 H  s          
     4     -0.790128  2 H  s                  2     -0.715816  1 H  s          

 Vector    4  Occ=0.000000D+00  E= 0.000000D+00
              MO Center=  0.0D+00,  0.0D+00, -2.0D-01, r^2= 6.2D+00
   Bfn.  Coefficient  Atom+Function         Bfn.  Coefficient  Atom+Function  
  ----- ------------  ---------------      ----- ------------  ---------------
     1     -0.965958  1 H  s                  3      0.841042  2 H  s          
     4     -0.790403  2 H  s                  2      0.767950  1 H  s          


 Task  times  cpu:       11.7s     wall:       15.8s
 Summary of allocated global arrays
-----------------------------------
  No active global arrays



                         GA Statistics for process    0
                         ------------------------------

       create   destroy   get      put      acc     scatter   gather  read&inc
calls:   44       44     7.25e+06 2.51e+04 1.99e+04    0        0       11     
number of processes/call 1.00e+00 1.00e+00 1.00e+00 0.00e+00 0.00e+00
bytes total:             9.32e+08 4.43e+06 3.17e+06 0.00e+00 0.00e+00 8.80e+01
bytes remote:            0.00e+00 0.00e+00 0.00e+00 0.00e+00 0.00e+00 0.00e+00
Max memory consumed for GA by this process: 10624 bytes
MA_summarize_allocated_blocks: starting scan ...
MA_summarize_allocated_blocks: scan completed: 0 heap blocks, 0 stack blocks
MA usage statistics:

	allocation statistics:
					      heap	     stack
					      ----	     -----
	current number of blocks	         0	         0
	maximum number of blocks	        19	        17
	current total bytes		         0	         0
	maximum total bytes		   3204328	  22508616
	maximum total K-bytes		      3205	     22509
	maximum total M-bytes		         4	        23


                                NWChem Input Module
                                -------------------





                                     CITATION
                                     --------
                Please cite the following reference when publishing
                           results obtained with NWChem:

                 M. Valiev, E.J. Bylaska, N. Govind, K. Kowalski,
              T.P. Straatsma, H.J.J. van Dam, D. Wang, J. Nieplocha,
                        E. Apra, T.L. Windus, W.A. de Jong
                 "NWChem: a comprehensive and scalable open-source
                  solution for large scale molecular simulations"
                      Comput. Phys. Commun. 181, 1477 (2010)
                           doi:10.1016/j.cpc.2010.04.018

                                      AUTHORS
                                      -------
          E. Apra, E. J. Bylaska, W. A. de Jong, N. Govind, K. Kowalski,
       T. P. Straatsma, M. Valiev, H. J. J. van Dam, D. Wang, T. L. Windus,
        J. Hammond, J. Autschbach, K. Bhaskaran-Nair, J. Brabec, K. Lopata,
    S. A. Fischer, S. Krishnamoorthy, M. Jacquelin, W. Ma, M. Klemm, O. Villa,
      Y. Chen, V. Anisimov, F. Aquino, S. Hirata, M. T. Hackler, V. Konjkov,
      T. Risthaus, M. Malagoli, A. Marenich, A. Otero-de-la-Roza, J. Mullin,
        P. Nichols, R. Peverati, J. Pittner, Y. Zhao, P.-D. Fan, A. Fonari,
       M. Williamson, R. J. Harrison, J. R. Rehr, M. Dupuis, D. Silverstein,
    D. M. A. Smith, J. Nieplocha, V. Tipparaju, M. Krishnan, B. E. Van Kuiken,
        A. Vazquez-Mayagoitia, L. Jensen, M. Swart, Q. Wu, T. Van Voorhis,
     A. A. Auer, M. Nooijen, L. D. Crosby, E. Brown, G. Cisneros, G. I. Fann,
   H. Fruchtl, J. Garza, K. Hirao, R. A. Kendall, J. A. Nichols, K. Tsemekhman,
    K. Wolinski, J. Anchell, D. E. Bernholdt, P. Borowski, T. Clark, D. Clerc,
   H. Dachsel, M. J. O. Deegan, K. Dyall, D. Elwood, E. Glendening, M. Gutowski,
   A. C. Hess, J. Jaffe, B. G. Johnson, J. Ju, R. Kobayashi, R. Kutteh, Z. Lin,
   R. Littlefield, X. Long, B. Meng, T. Nakajima, S. Niu, L. Pollack, M. Rosing,
   K. Glaesemann, G. Sandrone, M. Stave, H. Taylor, G. Thomas, J. H. van Lenthe,
                               A. T. Wong, Z. Zhang.

 Total times  cpu:       11.7s     wall:       15.8s
