 argument  1 = input-wf.nw



============================== echo of input deck ==============================
echo
start wfn1_dat
geometry units au noautoz
  H 0 0 -2.74434600000000000000
  H 0 0  2.74434600000000000000
  symmetry cs
end
basis
  H library 6-31g
end
set wfn1:input_vectors "atomic"
set wfn1:solver "monte-carlo"
set wfn1:print_error F
set wfn1:t_initial 0.1
set wfn1:nopen 2
#set wfn1:corr_expr "wfn1_mx"
set wfn1:corr_expr "wfn1c"
set wfn1:t_bath 0.0
set wfn1:maxit  20000
task wfn1 energy
================================================================================


                                         
                                         


              Northwest Computational Chemistry Package (NWChem) 6.8
              ------------------------------------------------------


                    Environmental Molecular Sciences Laboratory
                       Pacific Northwest National Laboratory
                                Richland, WA 99352

                              Copyright (c) 1994-2015
                       Pacific Northwest National Laboratory
                            Battelle Memorial Institute

             NWChem is an open-source computational chemistry package
                        distributed under the terms of the
                      Educational Community License (ECL) 2.0
             A copy of the license is included with this distribution
                              in the LICENSE.TXT file

                                  ACKNOWLEDGMENT
                                  --------------

            This software and its documentation were developed at the
            EMSL at Pacific Northwest National Laboratory, a multiprogram
            national laboratory, operated for the U.S. Department of Energy
            by Battelle under Contract Number DE-AC05-76RL01830. Support
            for this work was provided by the Department of Energy Office
            of Biological and Environmental Research, Office of Basic
            Energy Sciences, and the Office of Advanced Scientific Computing.


           Job information
           ---------------

    hostname        = erato
    program         = ../../../bin/LINUX64/nwchem
    date            = Sat Mar  6 01:32:47 2021

    compiled        = Sat_Mar_06_01:07:04_2021
    source          = /home/hvandam/nwchem-1-wfn1
    nwchem branch   = Development
    nwchem revision = nwchem_on_git-124-gad72d19fff205e319ffbbf2bca37a04ded6ad57b
    ga revision     = nwchem_on_git-124-gad72d19
    use scalapack   = F
    input           = input-wf.nw
    prefix          = wfn1_dat.
    data base       = ./wfn1_dat.db
    status          = startup
    nproc           =        1
    time left       =     -1s



           Memory information
           ------------------

    heap     =   13107200 doubles =    100.0 Mbytes
    stack    =   13107197 doubles =    100.0 Mbytes
    global   =   26214400 doubles =    200.0 Mbytes (distinct from heap & stack)
    total    =   52428797 doubles =    400.0 Mbytes
    verify   = yes
    hardfail = no 


           Directory information
           ---------------------

  0 permanent = .
  0 scratch   = .




                                NWChem Input Module
                                -------------------


 Turning off AUTOSYM since
 SYMMETRY directive was detected!



                             Geometry "geometry" -> ""
                             -------------------------

 Output coordinates in a.u. (scale by  1.000000000 to convert to a.u.)

  No.       Tag          Charge          X              Y              Z
 ---- ---------------- ---------- -------------- -------------- --------------
    1 H                    1.0000     0.00000000     0.00000000    -2.74434600
    2 H                    1.0000     0.00000000     0.00000000     2.74434600

      Atomic Mass 
      ----------- 

      H                  1.007825


 Effective nuclear repulsion energy (a.u.)       0.1821927702

            Nuclear Dipole moment (a.u.) 
            ----------------------------
        X                 Y               Z
 ---------------- ---------------- ----------------
     0.0000000000     0.0000000000     0.0000000000

      Symmetry information
      --------------------

 Group name             Cs        
 Group number              2
 Group order               2
 No. of unique centers     1

      Symmetry unique atoms

     1


            XYZ format geometry
            -------------------
     2
 geometry
 H                     0.00000000     0.00000000    -1.45224547
 H                     0.00000000     0.00000000     1.45224547

                      Basis "ao basis" -> "" (cartesian)
                      -----
  H (Hydrogen)
  ------------
            Exponent  Coefficients 
       -------------- ---------------------------------------------------------
  1 S  1.87311370E+01  0.033495
  1 S  2.82539370E+00  0.234727
  1 S  6.40121700E-01  0.813757

  2 S  1.61277800E-01  1.000000



 Summary of "ao basis" -> "" (cartesian)
 ------------------------------------------------------------------------------
       Tag                 Description            Shells   Functions and Types
 ---------------- ------------------------------  ------  ---------------------
 H                           6-31g                   2        2   2s



                                NWChem WFN1 Module
                                ------------------



          No. of electrons :     2
           Alpha electrons :     2
            Beta electrons :     0
          Charge           :     0
          Spin multiplicity:     3

 HvD: wfn1_inpdft
 HvD: nquad_task =                     1
 HvD: iangquad   =                     0
 HvD: gridtype   = user      
 HvD: leb        =  T
 HvD: radgrid    = murakn    
 HvD: trunc_neigh=  T
 HvD: lssw       =  T
 HvD: whichssw   = erf1    
 HvD: mxnrad     =                     0
 HvD: mxnang     =                     0
 HVD: wfn1: movecs_in  = atomic                                                                                                                                                                                                                                                          
 HVD: wfn1: movecs_out = ./wfn1_dat.movecs                                                                                                                                                                                                                                               

      Superposition of Atomic Density Guess
      -------------------------------------

 Sum of atomic energies:          -0.99646508

      Non-variational initial energy
      ------------------------------

 Total energy =      -0.682671
 1-e energy   =      -1.360850
 2-e energy   =       0.495986
 HOMO         =      -0.212577
 LUMO         =      -0.168729

 iteration              energy           error
 ---------              ------           -----
         0         -0.98410408        0.080000
         1         -0.98634418        0.080000
         2         -0.98770162        0.080000
         3         -0.98856788        0.080000
         4         -0.98885638        0.080000
         5         -0.98961483        0.080000
         6         -0.99009738        0.080000
         7         -0.99015726        0.080000
         8         -0.99147948        0.080000
         9         -0.99255235        0.080000
        10         -0.99320830        0.080000
        11         -0.99401595        0.080000
        12         -0.99441235        0.080000
        13         -0.99504549        0.080000
        14         -0.99538034        0.080000
        15         -0.99542954        0.080000
        16         -0.99545872        0.080000
        17         -0.99547297        0.063483
        18         -0.99550931        0.063483
        19         -0.99552268        0.063483
        20         -0.99553709        0.063483
        21         -0.99556500        0.055477
        22         -0.99560919        0.055477
        23         -0.99561696        0.055477
        24         -0.99568340        0.050382
        25         -0.99569027        0.037742
        26         -0.99573125        0.037742
        27         -0.99574180        0.032354
        28         -0.99574558        0.032354
        29         -0.99574589        0.032354
        30         -0.99576298        0.028274
        31         -0.99576754        0.021180
        32         -0.99577753        0.021180
        33         -0.99578428        0.021180
        34         -0.99578495        0.018157
        35         -0.99578698        0.016175
        36         -0.99578860        0.013866
        37         -0.99578985        0.013866
        38         -0.99579035        0.009995
        39         -0.99579071        0.009995
        40         -0.99579172        0.009995
        41         -0.99579389        0.008735
        42         -0.99579420        0.008735
        43         -0.99579492        0.005502
        44         -0.99579497        0.005502
        45         -0.99579508        0.005502
        46         -0.99579534        0.004808
        47         -0.99579551        0.004808
        48         -0.99579564        0.003602
        49         -0.99579579        0.003602
        50         -0.99579584        0.003148
        51         -0.99579598        0.003148
        52         -0.99579611        0.003148
        53         -0.99579617        0.002751
        54         -0.99579621        0.002451
        55         -0.99579624        0.002451
        56         -0.99579625        0.001766
        57         -0.99579629        0.001766
        58         -0.99579637        0.001544
        59         -0.99579638        0.001544
        60         -0.99579641        0.001349
        61         -0.99579644        0.001349
        62         -0.99579644        0.000991
        63         -0.99579645        0.000866
        64         -0.99579646        0.000866
        65         -0.99579647        0.000624
        66         -0.99579647        0.000624
        67         -0.99579648        0.000624
        68         -0.99579648        0.000546
        69         -0.99579648        0.000546
        70         -0.99579648        0.000546
        71         -0.99579649        0.000409
        72         -0.99579649        0.000306
        73         -0.99579649        0.000306
        74         -0.99579649        0.000221
        75         -0.99579649        0.000193
        76         -0.99579649        0.000193
        77         -0.99579649        0.000139
        78         -0.99579649        0.000122
        79         -0.99579649        0.000122
        80         -0.99579649        0.000122
        81         -0.99579649        0.000122
        82         -0.99579649        0.000122
        83         -0.99579649        0.000122
        84         -0.99579649        0.000104
        85         -0.99579649        0.000104
        86         -0.99579649        0.000098
        87         -0.99579649        0.000098
        88         -0.99579649        0.000098
        89         -0.99579649        0.000086
        90         -0.99579649        0.000086
        91         -0.99579649        0.000077
        92         -0.99579649        0.000077
        93         -0.99579649        0.000077
        94         -0.99579649        0.000056
        95         -0.99579649        0.000056
        96         -0.99579649        0.000050
        97         -0.99579649        0.000050
        98         -0.99579649        0.000044
        99         -0.99579649        0.000044
       100         -0.99579649        0.000044
       101         -0.99579649        0.000038
       102         -0.99579649        0.000034
       103         -0.99579649        0.000034
       104         -0.99579649        0.000034
       105         -0.99579649        0.000029
       106         -0.99579649        0.000029
       107         -0.99579649        0.000026
       108         -0.99579649        0.000023
       109         -0.99579649        0.000023
       110         -0.99579649        0.000012
       111         -0.99579649        0.000010
       112         -0.99579649        0.000009
       113         -0.99579649        0.000007
       114         -0.99579649        0.000007
       115         -0.99579649        0.000007
       116         -0.99579649        0.000005
       117         -0.99579649        0.000005
       118         -0.99579649        0.000005
       119         -0.99579649        0.000004
       120         -0.99579649        0.000004
       121         -0.99579649        0.000003
       122         -0.99579649        0.000003
       123         -0.99579649        0.000002
       124         -0.99579649        0.000002
       125         -0.99579649        0.000002
       126         -0.99579649        0.000002
       127         -0.99579649        0.000001
       128         -0.99579649        0.000001
       129         -0.99579649        0.000001
       130         -0.99579649        0.000001
       131         -0.99579649        0.000001

 Reached Convergence

 WFN1                     :
 --------------------------
 Total WFN1 energy  =          -0.9957964904
 1-Electron energy  =          -1.3595274130
 2-Electron energy  =           0.1815381524
 Correlation energy =           0.0000000000
 DFT XC energy      =           0.0000000000
 Entropy energy     =           0.0000000000
 Nuclear energy     =           0.1821927702

 conventional Hartree-Fock:
 --------------------------
 Total SCF energy  =          -0.9957964904
 2-Electron energy =           0.1815381524

                WFN1 Final Natural orbital energies and occupations
                ---------------------------------------------------

              Alpha       Beta            Alpha       Beta  
            --------    --------        --------    --------
       1      0.0000      0.0000          1.0000      0.0000
       2      0.0000      0.0000          1.0000      0.0000
       3      0.0000      0.0000          0.0000      0.0000
       4      0.0000      0.0000          0.0000      0.0000

             WFN1 Final Correlation function energies and occupations
             --------------------------------------------------------

              Alpha       Beta            Alpha       Beta  
            --------    --------        --------    --------
       1      0.0000      0.0000          1.0000      0.0000
       2      0.0000      0.0000          1.0000      0.0000
       3      0.0000      0.0000          0.0000      0.0000
       4      0.0000      0.0000          0.0000      0.0000

                WFN1 Final alpha-alpha 2-matrix occupation numbers
                --------------------------------------------------


 global array: g_momo1[1:4,1:4],  handle: -990 

            1           2           3           4  
       ----------- ----------- ----------- -----------
   1       0.00000     1.00000     0.00000     0.00000
   2       1.00000     0.00000     0.00000     0.00000
   3       0.00000     0.00000    -0.00000     0.00000
   4       0.00000     0.00000     0.00000     0.00000

                 WFN1 Final beta-beta 2-matrix occupation numbers
                 ------------------------------------------------


 global array: g_momo2[1:4,1:4],  handle: -989 

            1           2           3           4  
       ----------- ----------- ----------- -----------
   1       0.00000     0.00000     0.00000     0.00000
   2       0.00000     0.00000     0.00000     0.00000
   3       0.00000     0.00000     0.00000     0.00000
   4       0.00000     0.00000     0.00000     0.00000

                  WFN1 Final alpha Correlation Function Analysis
                  ----------------------------------------------


 global array: Ca[1:4,1:4],  handle: -977 

                     1                       2                       3                       4  
       ----------------------- ----------------------- ----------------------- -----------------------
   1       0.41148,   -0.67269     0.31321,   -0.52922    -0.00000,   -0.00000    -0.00000,   -0.00000
   2      -0.45926,    0.40898     0.58119,   -0.53295     0.00000,    0.00000     0.00000,   -0.00000
   3       0.00000,    0.00000    -0.00000,   -0.00000    -0.54316,    0.70764     0.28285,   -0.35245
   4      -0.00000,   -0.00000    -0.00000,   -0.00000     0.09682,   -0.44142     0.20991,   -0.86701

                   WFN1 Final beta Correlation Function Analysis
                   ---------------------------------------------


 global array: Cb[1:4,1:4],  handle: -976 

                     1                       2                       3                       4  
       ----------------------- ----------------------- ----------------------- -----------------------
   1       0.43278,   -0.65677     0.34190,   -0.50991     0.00351,   -0.04889    -0.00167,    0.04531
   2      -0.43503,    0.43528     0.56134,   -0.55109    -0.03372,   -0.02394    -0.02769,    0.00277
   3       0.03366,   -0.02468     0.05699,   -0.00397    -0.53169,    0.66037     0.35541,   -0.38716
   4       0.02779,    0.01128    -0.01789,   -0.02679     0.07881,   -0.52047     0.18230,   -0.82930

                     WFN1 Final Alpha Natural Orbital Analysis
                     -----------------------------------------

 Vector    1  Occ=1.000000D+00  E= 0.000000D+00
              MO Center=  0.0D+00,  0.0D+00,  1.7D-01, r^2= 2.8D+00
   Bfn.  Coefficient  Atom+Function         Bfn.  Coefficient  Atom+Function  
  ----- ------------  ---------------      ----- ------------  ---------------
     4     -0.487570  2 H  s                  2     -0.430386  1 H  s          
     3     -0.313617  2 H  s                  1     -0.276813  1 H  s          

 Vector    2  Occ=1.000000D+00  E= 0.000000D+00
              MO Center=  0.0D+00,  0.0D+00, -1.7D-01, r^2= 3.0D+00
   Bfn.  Coefficient  Atom+Function         Bfn.  Coefficient  Atom+Function  
  ----- ------------  ---------------      ----- ------------  ---------------
     2     -0.507917  1 H  s                  4      0.453307  2 H  s          
     1     -0.326884  1 H  s                  3      0.291759  2 H  s          

 Vector    3  Occ=8.190437D-15  E= 0.000000D+00
              MO Center=  0.0D+00,  0.0D+00,  8.7D-02, r^2= 3.1D+00
   Bfn.  Coefficient  Atom+Function         Bfn.  Coefficient  Atom+Function  
  ----- ------------  ---------------      ----- ------------  ---------------
     3     -0.901575  2 H  s                  1     -0.847589  1 H  s          
     4      0.782579  2 H  s                  2      0.730150  1 H  s          

 Vector    4  Occ=2.879425D-14  E= 0.000000D+00
              MO Center=  0.0D+00,  0.0D+00, -8.7D-02, r^2= 3.6D+00
   Bfn.  Coefficient  Atom+Function         Bfn.  Coefficient  Atom+Function  
  ----- ------------  ---------------      ----- ------------  ---------------
     1     -0.933748  1 H  s                  2      0.904057  1 H  s          
     3      0.881735  2 H  s                  4     -0.859074  2 H  s          


                     WFN1 Final Beta Natural Orbital Analysis
                     ----------------------------------------

 Vector    1  Occ=0.000000D+00  E= 0.000000D+00
              MO Center=  0.0D+00,  0.0D+00,  3.2D-02, r^2= 2.9D+00
   Bfn.  Coefficient  Atom+Function         Bfn.  Coefficient  Atom+Function  
  ----- ------------  ---------------      ----- ------------  ---------------
     4     -0.533328  2 H  s                  2     -0.492583  1 H  s          
     1     -0.245867  1 H  s                  3     -0.218023  2 H  s          

 Vector    2  Occ=0.000000D+00  E= 0.000000D+00
              MO Center=  0.0D+00,  0.0D+00, -3.0D-02, r^2= 3.1D+00
   Bfn.  Coefficient  Atom+Function         Bfn.  Coefficient  Atom+Function  
  ----- ------------  ---------------      ----- ------------  ---------------
     2     -0.551917  1 H  s                  4      0.547261  2 H  s          
     1     -0.243099  1 H  s                  3      0.231206  2 H  s          

 Vector    3  Occ=0.000000D+00  E= 0.000000D+00
              MO Center=  0.0D+00,  0.0D+00,  7.4D-02, r^2= 3.0D+00
   Bfn.  Coefficient  Atom+Function         Bfn.  Coefficient  Atom+Function  
  ----- ------------  ---------------      ----- ------------  ---------------
     3     -0.918206  2 H  s                  1     -0.869368  1 H  s          
     4      0.740224  2 H  s                  2      0.702175  1 H  s          

 Vector    4  Occ=0.000000D+00  E= 0.000000D+00
              MO Center=  0.0D+00,  0.0D+00, -7.6D-02, r^2= 3.5D+00
   Bfn.  Coefficient  Atom+Function         Bfn.  Coefficient  Atom+Function  
  ----- ------------  ---------------      ----- ------------  ---------------
     1     -0.947853  1 H  s                  3      0.910868  2 H  s          
     2      0.867957  1 H  s                  4     -0.813501  2 H  s          


 Task  times  cpu:       13.8s     wall:       23.7s
 Summary of allocated global arrays
-----------------------------------
  No active global arrays



                         GA Statistics for process    0
                         ------------------------------

       create   destroy   get      put      acc     scatter   gather  read&inc
calls:   44       44     7.50e+06 2.60e+04 2.05e+04    0        0       11     
number of processes/call 1.00e+00 1.00e+00 1.00e+00 0.00e+00 0.00e+00
bytes total:             9.64e+08 4.59e+06 3.27e+06 0.00e+00 0.00e+00 8.80e+01
bytes remote:            0.00e+00 0.00e+00 0.00e+00 0.00e+00 0.00e+00 0.00e+00
Max memory consumed for GA by this process: 10624 bytes
MA_summarize_allocated_blocks: starting scan ...
MA_summarize_allocated_blocks: scan completed: 0 heap blocks, 0 stack blocks
MA usage statistics:

	allocation statistics:
					      heap	     stack
					      ----	     -----
	current number of blocks	         0	         0
	maximum number of blocks	        19	        17
	current total bytes		         0	         0
	maximum total bytes		   3204328	  22508616
	maximum total K-bytes		      3205	     22509
	maximum total M-bytes		         4	        23


                                NWChem Input Module
                                -------------------





                                     CITATION
                                     --------
                Please cite the following reference when publishing
                           results obtained with NWChem:

                 M. Valiev, E.J. Bylaska, N. Govind, K. Kowalski,
              T.P. Straatsma, H.J.J. van Dam, D. Wang, J. Nieplocha,
                        E. Apra, T.L. Windus, W.A. de Jong
                 "NWChem: a comprehensive and scalable open-source
                  solution for large scale molecular simulations"
                      Comput. Phys. Commun. 181, 1477 (2010)
                           doi:10.1016/j.cpc.2010.04.018

                                      AUTHORS
                                      -------
          E. Apra, E. J. Bylaska, W. A. de Jong, N. Govind, K. Kowalski,
       T. P. Straatsma, M. Valiev, H. J. J. van Dam, D. Wang, T. L. Windus,
        J. Hammond, J. Autschbach, K. Bhaskaran-Nair, J. Brabec, K. Lopata,
    S. A. Fischer, S. Krishnamoorthy, M. Jacquelin, W. Ma, M. Klemm, O. Villa,
      Y. Chen, V. Anisimov, F. Aquino, S. Hirata, M. T. Hackler, V. Konjkov,
      T. Risthaus, M. Malagoli, A. Marenich, A. Otero-de-la-Roza, J. Mullin,
        P. Nichols, R. Peverati, J. Pittner, Y. Zhao, P.-D. Fan, A. Fonari,
       M. Williamson, R. J. Harrison, J. R. Rehr, M. Dupuis, D. Silverstein,
    D. M. A. Smith, J. Nieplocha, V. Tipparaju, M. Krishnan, B. E. Van Kuiken,
        A. Vazquez-Mayagoitia, L. Jensen, M. Swart, Q. Wu, T. Van Voorhis,
     A. A. Auer, M. Nooijen, L. D. Crosby, E. Brown, G. Cisneros, G. I. Fann,
   H. Fruchtl, J. Garza, K. Hirao, R. A. Kendall, J. A. Nichols, K. Tsemekhman,
    K. Wolinski, J. Anchell, D. E. Bernholdt, P. Borowski, T. Clark, D. Clerc,
   H. Dachsel, M. J. O. Deegan, K. Dyall, D. Elwood, E. Glendening, M. Gutowski,
   A. C. Hess, J. Jaffe, B. G. Johnson, J. Ju, R. Kobayashi, R. Kutteh, Z. Lin,
   R. Littlefield, X. Long, B. Meng, T. Nakajima, S. Niu, L. Pollack, M. Rosing,
   K. Glaesemann, G. Sandrone, M. Stave, H. Taylor, G. Thomas, J. H. van Lenthe,
                               A. T. Wong, Z. Zhang.

 Total times  cpu:       13.8s     wall:       23.8s
