 argument  1 = input-wf.nw



============================== echo of input deck ==============================
echo
start wfn1_dat
geometry units au noautoz
  H 0 0 -1.49434600000000000000
  H 0 0  1.49434600000000000000
  symmetry cs
end
basis
  H library 6-31g
end
set wfn1:input_vectors "atomic"
set wfn1:solver "monte-carlo"
set wfn1:print_error F
set wfn1:t_initial 0.1
set wfn1:nopen 2
#set wfn1:corr_expr "wfn1_mx"
set wfn1:corr_expr "wfn1c"
set wfn1:t_bath 0.0
set wfn1:maxit  20000
task wfn1 energy
================================================================================


                                         
                                         


              Northwest Computational Chemistry Package (NWChem) 6.8
              ------------------------------------------------------


                    Environmental Molecular Sciences Laboratory
                       Pacific Northwest National Laboratory
                                Richland, WA 99352

                              Copyright (c) 1994-2015
                       Pacific Northwest National Laboratory
                            Battelle Memorial Institute

             NWChem is an open-source computational chemistry package
                        distributed under the terms of the
                      Educational Community License (ECL) 2.0
             A copy of the license is included with this distribution
                              in the LICENSE.TXT file

                                  ACKNOWLEDGMENT
                                  --------------

            This software and its documentation were developed at the
            EMSL at Pacific Northwest National Laboratory, a multiprogram
            national laboratory, operated for the U.S. Department of Energy
            by Battelle under Contract Number DE-AC05-76RL01830. Support
            for this work was provided by the Department of Energy Office
            of Biological and Environmental Research, Office of Basic
            Energy Sciences, and the Office of Advanced Scientific Computing.


           Job information
           ---------------

    hostname        = erato
    program         = ../../../bin/LINUX64/nwchem
    date            = Sat Mar  6 01:23:13 2021

    compiled        = Sat_Mar_06_01:07:04_2021
    source          = /home/hvandam/nwchem-1-wfn1
    nwchem branch   = Development
    nwchem revision = nwchem_on_git-124-gad72d19fff205e319ffbbf2bca37a04ded6ad57b
    ga revision     = nwchem_on_git-124-gad72d19
    use scalapack   = F
    input           = input-wf.nw
    prefix          = wfn1_dat.
    data base       = ./wfn1_dat.db
    status          = startup
    nproc           =        1
    time left       =     -1s



           Memory information
           ------------------

    heap     =   13107200 doubles =    100.0 Mbytes
    stack    =   13107197 doubles =    100.0 Mbytes
    global   =   26214400 doubles =    200.0 Mbytes (distinct from heap & stack)
    total    =   52428797 doubles =    400.0 Mbytes
    verify   = yes
    hardfail = no 


           Directory information
           ---------------------

  0 permanent = .
  0 scratch   = .




                                NWChem Input Module
                                -------------------


 Turning off AUTOSYM since
 SYMMETRY directive was detected!



                             Geometry "geometry" -> ""
                             -------------------------

 Output coordinates in a.u. (scale by  1.000000000 to convert to a.u.)

  No.       Tag          Charge          X              Y              Z
 ---- ---------------- ---------- -------------- -------------- --------------
    1 H                    1.0000     0.00000000     0.00000000    -1.49434600
    2 H                    1.0000     0.00000000     0.00000000     1.49434600

      Atomic Mass 
      ----------- 

      H                  1.007825


 Effective nuclear repulsion energy (a.u.)       0.3345945317

            Nuclear Dipole moment (a.u.) 
            ----------------------------
        X                 Y               Z
 ---------------- ---------------- ----------------
     0.0000000000     0.0000000000     0.0000000000

      Symmetry information
      --------------------

 Group name             Cs        
 Group number              2
 Group order               2
 No. of unique centers     1

      Symmetry unique atoms

     1


            XYZ format geometry
            -------------------
     2
 geometry
 H                     0.00000000     0.00000000    -0.79077391
 H                     0.00000000     0.00000000     0.79077391

                      Basis "ao basis" -> "" (cartesian)
                      -----
  H (Hydrogen)
  ------------
            Exponent  Coefficients 
       -------------- ---------------------------------------------------------
  1 S  1.87311370E+01  0.033495
  1 S  2.82539370E+00  0.234727
  1 S  6.40121700E-01  0.813757

  2 S  1.61277800E-01  1.000000



 Summary of "ao basis" -> "" (cartesian)
 ------------------------------------------------------------------------------
       Tag                 Description            Shells   Functions and Types
 ---------------- ------------------------------  ------  ---------------------
 H                           6-31g                   2        2   2s



                                NWChem WFN1 Module
                                ------------------



          No. of electrons :     2
           Alpha electrons :     2
            Beta electrons :     0
          Charge           :     0
          Spin multiplicity:     3

 HvD: wfn1_inpdft
 HvD: nquad_task =                     1
 HvD: iangquad   =                     0
 HvD: gridtype   = user      
 HvD: leb        =  T
 HvD: radgrid    = murakn    
 HvD: trunc_neigh=  T
 HvD: lssw       =  T
 HvD: whichssw   = erf1    
 HvD: mxnrad     =                     0
 HvD: mxnang     =                     0
 HVD: wfn1: movecs_in  = atomic                                                                                                                                                                                                                                                          
 HVD: wfn1: movecs_out = ./wfn1_dat.movecs                                                                                                                                                                                                                                               

      Superposition of Atomic Density Guess
      -------------------------------------

 Sum of atomic energies:          -0.99646508

      Non-variational initial energy
      ------------------------------

 Total energy =      -0.718446
 1-e energy   =      -1.660768
 2-e energy   =       0.607728
 HOMO         =      -0.323596
 LUMO         =      -0.042719

 iteration              energy           error
 ---------              ------           -----
         0         -0.95174264        0.080000
         1         -0.95191767        0.080000
         2         -0.95278313        0.080000
         3         -0.95437039        0.080000
         4         -0.95497961        0.080000
         5         -0.95498018        0.080000
         6         -0.95525141        0.080000
         7         -0.95620715        0.080000
         8         -0.95657690        0.080000
         9         -0.95814675        0.080000
        10         -0.95900165        0.080000
        11         -0.96006124        0.080000
        12         -0.96131426        0.080000
        13         -0.96241519        0.080000
        14         -0.96273937        0.080000
        15         -0.96318693        0.080000
        16         -0.96379838        0.080000
        17         -0.96430506        0.080000
        18         -0.96456838        0.080000
        19         -0.96474774        0.080000
        20         -0.96475279        0.080000
        21         -0.96484937        0.080000
        22         -0.96489130        0.080000
        23         -0.96497349        0.069893
        24         -0.96497932        0.069893
        25         -0.96503386        0.069893
        26         -0.96510244        0.062265
        27         -0.96511971        0.055470
        28         -0.96513913        0.055470
        29         -0.96514019        0.033623
        30         -0.96514781        0.029383
        31         -0.96515167        0.029383
        32         -0.96516721        0.029383
        33         -0.96517208        0.025188
        34         -0.96517279        0.025188
        35         -0.96517940        0.025188
        36         -0.96517967        0.018869
        37         -0.96518103        0.018869
        38         -0.96518565        0.014135
        39         -0.96518678        0.012352
        40         -0.96518795        0.010589
        41         -0.96518829        0.009077
        42         -0.96519121        0.007781
        43         -0.96519167        0.006670
        44         -0.96519238        0.006670
        45         -0.96519260        0.005718
        46         -0.96519270        0.004202
        47         -0.96519298        0.004202
        48         -0.96519311        0.004202
        49         -0.96519339        0.004202
        50         -0.96519339        0.003029
        51         -0.96519353        0.002751
        52         -0.96519359        0.002751
        53         -0.96519362        0.002358
        54         -0.96519365        0.002358
        55         -0.96519366        0.001733
        56         -0.96519366        0.001514
        57         -0.96519367        0.001298
        58         -0.96519368        0.001298
        59         -0.96519368        0.001298
        60         -0.96519369        0.001113
        61         -0.96519371        0.000991
        62         -0.96519371        0.000850
        63         -0.96519371        0.000850
        64         -0.96519371        0.000850
        65         -0.96519372        0.000850
        66         -0.96519373        0.000850
        67         -0.96519374        0.000613
        68         -0.96519374        0.000567
        69         -0.96519374        0.000486
        70         -0.96519374        0.000350
        71         -0.96519374        0.000350
        72         -0.96519374        0.000350
        73         -0.96519374        0.000300
        74         -0.96519375        0.000189
        75         -0.96519375        0.000162
        76         -0.96519375        0.000162
        77         -0.96519375        0.000139
        78         -0.96519375        0.000139
        79         -0.96519375        0.000139
        80         -0.96519375        0.000122
        81         -0.96519375        0.000122
        82         -0.96519375        0.000108
        83         -0.96519375        0.000067
        84         -0.96519375        0.000067
        85         -0.96519375        0.000048
        86         -0.96519375        0.000048
        87         -0.96519375        0.000048
        88         -0.96519375        0.000042
        89         -0.96519375        0.000042
        90         -0.96519375        0.000038
        91         -0.96519375        0.000038
        92         -0.96519375        0.000033
        93         -0.96519375        0.000029
        94         -0.96519375        0.000029
        95         -0.96519375        0.000025
        96         -0.96519375        0.000025
        97         -0.96519375        0.000025
        98         -0.96519375        0.000025
        99         -0.96519375        0.000021
       100         -0.96519375        0.000020
       101         -0.96519375        0.000020
       102         -0.96519375        0.000020
       103         -0.96519375        0.000020
       104         -0.96519375        0.000017
       105         -0.96519375        0.000017
       106         -0.96519375        0.000013
       107         -0.96519375        0.000013
       108         -0.96519375        0.000013
       109         -0.96519375        0.000013
       110         -0.96519375        0.000013
       111         -0.96519375        0.000011
       112         -0.96519375        0.000009
       113         -0.96519375        0.000004
       114         -0.96519375        0.000004
       115         -0.96519375        0.000004
       116         -0.96519375        0.000004
       117         -0.96519375        0.000003
       118         -0.96519375        0.000003
       119         -0.96519375        0.000002
       120         -0.96519375        0.000002
       121         -0.96519375        0.000002
       122         -0.96519375        0.000002
       123         -0.96519375        0.000002
       124         -0.96519375        0.000002
       125         -0.96519375        0.000001
       126         -0.96519375        0.000001

 Reached Convergence

 WFN1                     :
 --------------------------
 Total WFN1 energy  =          -0.9651937474
 1-Electron energy  =          -1.5943911703
 2-Electron energy  =           0.2946028913
 Correlation energy =           0.0000000000
 DFT XC energy      =           0.0000000000
 Entropy energy     =           0.0000000000
 Nuclear energy     =           0.3345945317

 conventional Hartree-Fock:
 --------------------------
 Total SCF energy  =          -0.9651937474
 2-Electron energy =           0.2946028913

                WFN1 Final Natural orbital energies and occupations
                ---------------------------------------------------

              Alpha       Beta            Alpha       Beta  
            --------    --------        --------    --------
       1      0.0000      0.0000          1.0000      0.0000
       2      0.0000      0.0000          1.0000      0.0000
       3      0.0000      0.0000          0.0000      0.0000
       4      0.0000      0.0000          0.0000      0.0000

             WFN1 Final Correlation function energies and occupations
             --------------------------------------------------------

              Alpha       Beta            Alpha       Beta  
            --------    --------        --------    --------
       1      0.0000      0.0000          1.0000      0.0000
       2      0.0000      0.0000          1.0000      0.0000
       3      0.0000      0.0000          0.0000      0.0000
       4      0.0000      0.0000          0.0000      0.0000

                WFN1 Final alpha-alpha 2-matrix occupation numbers
                --------------------------------------------------


 global array: g_momo1[1:4,1:4],  handle: -990 

            1           2           3           4  
       ----------- ----------- ----------- -----------
   1       0.00000     1.00000     0.00000     0.00000
   2       1.00000     0.00000     0.00000     0.00000
   3       0.00000     0.00000     0.00000     0.00000
   4       0.00000     0.00000     0.00000    -0.00000

                 WFN1 Final beta-beta 2-matrix occupation numbers
                 ------------------------------------------------


 global array: g_momo2[1:4,1:4],  handle: -989 

            1           2           3           4  
       ----------- ----------- ----------- -----------
   1       0.00000     0.00000     0.00000     0.00000
   2       0.00000     0.00000     0.00000     0.00000
   3       0.00000     0.00000     0.00000     0.00000
   4       0.00000     0.00000     0.00000     0.00000

                  WFN1 Final alpha Correlation Function Analysis
                  ----------------------------------------------


 global array: Ca[1:4,1:4],  handle: -981 

                     1                       2                       3                       4  
       ----------------------- ----------------------- ----------------------- -----------------------
   1      -0.80481,   -0.53823     0.21474,    0.12832    -0.00000,   -0.00000    -0.00000,    0.00000
   2       0.19128,   -0.16121     0.70769,   -0.66075     0.00000,    0.00000     0.00000,   -0.00000
   3      -0.00000,    0.00000    -0.00000,    0.00000     0.58452,   -0.51966     0.47073,   -0.40830
   4      -0.00000,    0.00000    -0.00000,    0.00000     0.15264,    0.60415    -0.18230,   -0.76057

                   WFN1 Final beta Correlation Function Analysis
                   ---------------------------------------------


 global array: Cb[1:4,1:4],  handle: -980 

                     1                       2                       3                       4  
       ----------------------- ----------------------- ----------------------- -----------------------
   1      -0.79795,   -0.55035     0.17869,    0.15898     0.02947,   -0.00192    -0.02513,   -0.04090
   2       0.15015,   -0.18339     0.69865,   -0.67302    -0.00565,    0.03566     0.00969,   -0.03692
   3       0.01206,    0.02488     0.00336,   -0.00457     0.58852,   -0.52691     0.45855,   -0.40614
   4       0.01195,    0.05744    -0.01996,    0.03605     0.14237,    0.59462    -0.18158,   -0.76684

                     WFN1 Final Alpha Natural Orbital Analysis
                     -----------------------------------------

 Vector    1  Occ=1.000000D+00  E= 0.000000D+00
              MO Center=  0.0D+00,  0.0D+00,  8.6D-03, r^2= 1.3D+00
   Bfn.  Coefficient  Atom+Function         Bfn.  Coefficient  Atom+Function  
  ----- ------------  ---------------      ----- ------------  ---------------
     4     -0.382105  2 H  s                  2     -0.375637  1 H  s          
     3     -0.299299  2 H  s                  1     -0.295966  1 H  s          

 Vector    2  Occ=1.000000D+00  E= 0.000000D+00
              MO Center=  0.0D+00,  0.0D+00, -8.6D-03, r^2= 1.7D+00
   Bfn.  Coefficient  Atom+Function         Bfn.  Coefficient  Atom+Function  
  ----- ------------  ---------------      ----- ------------  ---------------
     2     -0.637738  1 H  s                  4      0.633884  2 H  s          
     1     -0.329221  1 H  s                  3      0.326193  2 H  s          

 Vector    3  Occ=1.480539D-14  E= 0.000000D+00
              MO Center=  0.0D+00,  0.0D+00,  2.5D-02, r^2= 2.3D+00
   Bfn.  Coefficient  Atom+Function         Bfn.  Coefficient  Atom+Function  
  ----- ------------  ---------------      ----- ------------  ---------------
     4     -1.138202  2 H  s                  2      1.118168  1 H  s          
     3      0.901667  2 H  s                  1     -0.875854  1 H  s          

 Vector    4  Occ=3.809650D-15  E= 0.000000D+00
              MO Center=  0.0D+00,  0.0D+00, -2.5D-02, r^2= 1.8D+00
   Bfn.  Coefficient  Atom+Function         Bfn.  Coefficient  Atom+Function  
  ----- ------------  ---------------      ----- ------------  ---------------
     1     -0.926981  1 H  s                  3     -0.901893  2 H  s          
     2      0.725659  1 H  s                  4      0.693813  2 H  s          


                     WFN1 Final Beta Natural Orbital Analysis
                     ----------------------------------------

 Vector    1  Occ=0.000000D+00  E= 0.000000D+00
              MO Center=  0.0D+00,  0.0D+00,  5.5D-02, r^2= 1.5D+00
   Bfn.  Coefficient  Atom+Function         Bfn.  Coefficient  Atom+Function  
  ----- ------------  ---------------      ----- ------------  ---------------
     4     -0.498536  2 H  s                  2     -0.426303  1 H  s          
     1     -0.188895  1 H  s                  3     -0.178536  2 H  s          

 Vector    2  Occ=0.000000D+00  E= 0.000000D+00
              MO Center=  0.0D+00,  0.0D+00, -5.4D-02, r^2= 2.1D+00
   Bfn.  Coefficient  Atom+Function         Bfn.  Coefficient  Atom+Function  
  ----- ------------  ---------------      ----- ------------  ---------------
     2     -0.824266  1 H  s                  4      0.782633  2 H  s          
     3      0.189324  2 H  s                  1     -0.180907  1 H  s          

 Vector    3  Occ=0.000000D+00  E= 0.000000D+00
              MO Center=  0.0D+00,  0.0D+00, -5.3D-02, r^2= 2.0D+00
   Bfn.  Coefficient  Atom+Function         Bfn.  Coefficient  Atom+Function  
  ----- ------------  ---------------      ----- ------------  ---------------
     2      1.038664  1 H  s                  4     -0.990212  2 H  s          
     1     -0.953654  1 H  s                  3      0.903809  2 H  s          

 Vector    4  Occ=0.000000D+00  E= 0.000000D+00
              MO Center=  0.0D+00,  0.0D+00,  5.2D-02, r^2= 1.6D+00
   Bfn.  Coefficient  Atom+Function         Bfn.  Coefficient  Atom+Function  
  ----- ------------  ---------------      ----- ------------  ---------------
     3     -0.968404  2 H  s                  1     -0.918984  1 H  s          
     4      0.695069  2 H  s                  2      0.620258  1 H  s          


 Task  times  cpu:       14.0s     wall:       24.2s
 Summary of allocated global arrays
-----------------------------------
  No active global arrays



                         GA Statistics for process    0
                         ------------------------------

       create   destroy   get      put      acc     scatter   gather  read&inc
calls:   44       44     7.51e+06 2.60e+04 2.06e+04    0        0       11     
number of processes/call 1.00e+00 1.00e+00 1.00e+00 0.00e+00 0.00e+00
bytes total:             9.65e+08 4.59e+06 3.28e+06 0.00e+00 0.00e+00 8.80e+01
bytes remote:            0.00e+00 0.00e+00 0.00e+00 0.00e+00 0.00e+00 0.00e+00
Max memory consumed for GA by this process: 10624 bytes
MA_summarize_allocated_blocks: starting scan ...
MA_summarize_allocated_blocks: scan completed: 0 heap blocks, 0 stack blocks
MA usage statistics:

	allocation statistics:
					      heap	     stack
					      ----	     -----
	current number of blocks	         0	         0
	maximum number of blocks	        19	        17
	current total bytes		         0	         0
	maximum total bytes		   3204328	  22508616
	maximum total K-bytes		      3205	     22509
	maximum total M-bytes		         4	        23


                                NWChem Input Module
                                -------------------





                                     CITATION
                                     --------
                Please cite the following reference when publishing
                           results obtained with NWChem:

                 M. Valiev, E.J. Bylaska, N. Govind, K. Kowalski,
              T.P. Straatsma, H.J.J. van Dam, D. Wang, J. Nieplocha,
                        E. Apra, T.L. Windus, W.A. de Jong
                 "NWChem: a comprehensive and scalable open-source
                  solution for large scale molecular simulations"
                      Comput. Phys. Commun. 181, 1477 (2010)
                           doi:10.1016/j.cpc.2010.04.018

                                      AUTHORS
                                      -------
          E. Apra, E. J. Bylaska, W. A. de Jong, N. Govind, K. Kowalski,
       T. P. Straatsma, M. Valiev, H. J. J. van Dam, D. Wang, T. L. Windus,
        J. Hammond, J. Autschbach, K. Bhaskaran-Nair, J. Brabec, K. Lopata,
    S. A. Fischer, S. Krishnamoorthy, M. Jacquelin, W. Ma, M. Klemm, O. Villa,
      Y. Chen, V. Anisimov, F. Aquino, S. Hirata, M. T. Hackler, V. Konjkov,
      T. Risthaus, M. Malagoli, A. Marenich, A. Otero-de-la-Roza, J. Mullin,
        P. Nichols, R. Peverati, J. Pittner, Y. Zhao, P.-D. Fan, A. Fonari,
       M. Williamson, R. J. Harrison, J. R. Rehr, M. Dupuis, D. Silverstein,
    D. M. A. Smith, J. Nieplocha, V. Tipparaju, M. Krishnan, B. E. Van Kuiken,
        A. Vazquez-Mayagoitia, L. Jensen, M. Swart, Q. Wu, T. Van Voorhis,
     A. A. Auer, M. Nooijen, L. D. Crosby, E. Brown, G. Cisneros, G. I. Fann,
   H. Fruchtl, J. Garza, K. Hirao, R. A. Kendall, J. A. Nichols, K. Tsemekhman,
    K. Wolinski, J. Anchell, D. E. Bernholdt, P. Borowski, T. Clark, D. Clerc,
   H. Dachsel, M. J. O. Deegan, K. Dyall, D. Elwood, E. Glendening, M. Gutowski,
   A. C. Hess, J. Jaffe, B. G. Johnson, J. Ju, R. Kobayashi, R. Kutteh, Z. Lin,
   R. Littlefield, X. Long, B. Meng, T. Nakajima, S. Niu, L. Pollack, M. Rosing,
   K. Glaesemann, G. Sandrone, M. Stave, H. Taylor, G. Thomas, J. H. van Lenthe,
                               A. T. Wong, Z. Zhang.

 Total times  cpu:       14.0s     wall:       24.2s
