 argument  1 = /home/hvandam/nwchem-1-srp-hpc/QA/tests/ZSM-5/nwc/propene-dft-pbe-cosmo.nw



============================== echo of input deck ==============================
echo
start propene-dat

memory heap 100 mb stack 500 mb global 1024 mb

geometry
  #load ../xyz/propene.xyz
  load propene.xyz
end

basis "cc-pvdz" spherical
  * library cc-pvdz
end
basis "cc-pvtz" spherical
  * library cc-pvtz
end
basis "cc-pvqz" spherical
  * library cc-pvqz
end
basis "cc-pv5z" spherical
  * library cc-pv5z
end
basis "cc-pv6z" spherical
  * library cc-pv6z
end

dft
  direct
  # select PBE functional following https://doi.org/10.1002/aic.15517
  xc xpbe96 cpbe96
end
# COSMO is a solvation model with implicit water
# following https://doi.org/10.1021/jp992097l
cosmo
  do_gasphase False
end

set int:txs:limxmem              50000000

set "ao basis" "cc-pvdz"
task dft optimize

#set "ao basis" "cc-pvtz"
#task dft optimize

#set "ao basis" "cc-pvqz"
#task dft optimize

#set "ao basis" "cc-pv5z"
#task dft optimize

#set "ao basis" "cc-pv6z"
#task dft optimize
================================================================================


                                         
                                         


             Northwest Computational Chemistry Package (NWChem) 7.0.1
             --------------------------------------------------------


                    Environmental Molecular Sciences Laboratory
                       Pacific Northwest National Laboratory
                                Richland, WA 99352

                              Copyright (c) 1994-2020
                       Pacific Northwest National Laboratory
                            Battelle Memorial Institute

             NWChem is an open-source computational chemistry package
                        distributed under the terms of the
                      Educational Community License (ECL) 2.0
             A copy of the license is included with this distribution
                              in the LICENSE.TXT file

                                  ACKNOWLEDGMENT
                                  --------------

            This software and its documentation were developed at the
            EMSL at Pacific Northwest National Laboratory, a multiprogram
            national laboratory, operated for the U.S. Department of Energy
            by Battelle under Contract Number DE-AC05-76RL01830. Support
            for this work was provided by the Department of Energy Office
            of Biological and Environmental Research, Office of Basic
            Energy Sciences, and the Office of Advanced Scientific Computing.


           Job information
           ---------------

    hostname        = node004
    program         = /home/hvandam/nwchem-1-srp-hpc/bin/LINUX64/nwchem
    date            = Wed Sep  7 09:38:54 2022

    compiled        = Fri_Jul_08_12:50:28_2022
    source          = /home/hvandam/nwchem-1-srp-hpc
    nwchem branch   = 7.0.0
    nwchem revision = nwchem_on_git-4025-gba861c8c44
    ga revision     = 5.8.1
    use scalapack   = F
    input           = /home/hvandam/nwchem-1-srp-hpc/QA/tests/ZSM-5/nwc/propene-dft-pbe-cosmo.nw
    prefix          = propene-dat.
    data base       = ./propene-dat.db
    status          = startup
    nproc           =       16
    time left       =     -1s



           Memory information
           ------------------

    heap     =   13107200 doubles =    100.0 Mbytes
    stack    =   65535997 doubles =    500.0 Mbytes
    global   =  134217728 doubles =   1024.0 Mbytes (distinct from heap & stack)
    total    =  212860925 doubles =   1624.0 Mbytes
    verify   = yes
    hardfail = no 


           Directory information
           ---------------------

  0 permanent = .
  0 scratch   = .




                                NWChem Input Module
                                -------------------



 Scaling coordinates for geometry "geometry" by  1.889725989
 (inverse scale =  0.529177249)

 CS  symmetry detected

          ------
          auto-z
          ------
  no constraints, skipping    0.0000000000000000     
  no constraints, skipping    0.0000000000000000     


                             Geometry "geometry" -> ""
                             -------------------------

 Output coordinates in angstroms (scale by  1.889725989 to convert to a.u.)

  No.       Tag          Charge          X              Y              Z
 ---- ---------------- ---------- -------------- -------------- --------------
    1 C                    6.0000     0.17260109    -1.22074068     0.00000000
    2 C                    6.0000    -0.47115414     0.12585946     0.00000000
    3 C                    6.0000     0.22313530     1.27023170     0.00000000
    4 H                    1.0000    -0.59433050    -2.00165341     0.00000000
    5 H                    1.0000     0.78995232    -1.35759185     0.89312548
    6 H                    1.0000     0.78995232    -1.35759185    -0.89312548
    7 H                    1.0000    -1.55855812     0.16115642     0.00000000
    8 H                    1.0000     1.30915519     1.27398534     0.00000000
    9 H                    1.0000    -0.28366476     2.22959244     0.00000000

      Atomic Mass 
      ----------- 

      C                 12.000000
      H                  1.007825


 Effective nuclear repulsion energy (a.u.)      70.8372708184

            Nuclear Dipole moment (a.u.) 
            ----------------------------
        X                 Y               Z
 ---------------- ---------------- ----------------
     0.0000000000    -0.0000000000     0.0000000000

      Symmetry information
      --------------------

 Group name             Cs        
 Group number              2
 Group order               2
 No. of unique centers     8

      Symmetry unique atoms

     1    2    3    4    5    7    8    9



                                Z-matrix (autoz)
                                -------- 

 Units are Angstrom for bonds and degrees for angles

      Type          Name      I     J     K     L     M      Value
      ----------- --------  ----- ----- ----- ----- ----- ----------
    1 Stretch                  1     2                       1.49257
    2 Stretch                  1     4                       1.09454
    3 Stretch                  1     5                       1.09431
    4 Stretch                  1     6                       1.09431
    5 Stretch                  2     3                       1.33852
    6 Stretch                  2     7                       1.08798
    7 Stretch                  3     8                       1.08603
    8 Stretch                  3     9                       1.08500
    9 Bend                     1     2     3               123.20427
   10 Bend                     1     2     7               117.40974
   11 Bend                     2     1     4               109.96694
   12 Bend                     2     1     5               110.86372
   13 Bend                     2     1     6               110.86372
   14 Bend                     2     3     8               121.44318
   15 Bend                     2     3     9               120.90877
   16 Bend                     3     2     7               119.38599
   17 Bend                     4     1     5               107.82240
   18 Bend                     4     1     6               107.82240
   19 Bend                     5     1     6               109.40261
   20 Bend                     8     3     9               117.64805
   21 Torsion                  1     2     3     8           0.00000
   22 Torsion                  1     2     3     9         180.00000
   23 Torsion                  3     2     1     4         180.00000
   24 Torsion                  3     2     1     5          60.85863
   25 Torsion                  3     2     1     6         -60.85863
   26 Torsion                  4     1     2     7           0.00000
   27 Torsion                  5     1     2     7        -119.14137
   28 Torsion                  6     1     2     7         119.14137
   29 Torsion                  7     2     3     8         180.00000
   30 Torsion                  7     2     3     9           0.00000


            XYZ format geometry
            -------------------
     9
 geometry
 C                     0.17260109    -1.22074068     0.00000000
 C                    -0.47115414     0.12585946     0.00000000
 C                     0.22313530     1.27023170     0.00000000
 H                    -0.59433050    -2.00165341     0.00000000
 H                     0.78995232    -1.35759185     0.89312548
 H                     0.78995232    -1.35759185    -0.89312548
 H                    -1.55855812     0.16115642     0.00000000
 H                     1.30915519     1.27398534     0.00000000
 H                    -0.28366476     2.22959244     0.00000000

 ==============================================================================
                                internuclear distances
 ------------------------------------------------------------------------------
       center one      |      center two      | atomic units |  angstroms
 ------------------------------------------------------------------------------
    2 C                |   1 C                |     2.82054  |     1.49257
    3 C                |   2 C                |     2.52943  |     1.33852
    4 H                |   1 C                |     2.06837  |     1.09454
    5 H                |   1 C                |     2.06795  |     1.09431
    6 H                |   1 C                |     2.06795  |     1.09431
    7 H                |   2 C                |     2.05598  |     1.08798
    8 H                |   3 C                |     2.05229  |     1.08603
    9 H                |   3 C                |     2.05035  |     1.08500
 ------------------------------------------------------------------------------
                         number of included internuclear distances:          8
 ==============================================================================



 ==============================================================================
                                 internuclear angles
 ------------------------------------------------------------------------------
        center 1       |       center 2       |       center 3       |  degrees
 ------------------------------------------------------------------------------
    2 C                |   1 C                |   4 H                |   109.97
    2 C                |   1 C                |   5 H                |   110.86
    2 C                |   1 C                |   6 H                |   110.86
    4 H                |   1 C                |   5 H                |   107.82
    4 H                |   1 C                |   6 H                |   107.82
    5 H                |   1 C                |   6 H                |   109.40
    1 C                |   2 C                |   3 C                |   123.20
    1 C                |   2 C                |   7 H                |   117.41
    3 C                |   2 C                |   7 H                |   119.39
    2 C                |   3 C                |   8 H                |   121.44
    2 C                |   3 C                |   9 H                |   120.91
    8 H                |   3 C                |   9 H                |   117.65
 ------------------------------------------------------------------------------
                            number of included internuclear angles:         12
 ==============================================================================





 Summary of "cc-pvdz" -> "" (spherical)
 ------------------------------------------------------------------------------
       Tag                 Description            Shells   Functions and Types
 ---------------- ------------------------------  ------  ---------------------
 *                          cc-pvdz                   on all atoms 




 Summary of "cc-pvtz" -> "" (spherical)
 ------------------------------------------------------------------------------
       Tag                 Description            Shells   Functions and Types
 ---------------- ------------------------------  ------  ---------------------
 *                          cc-pvtz                   on all atoms 




 Summary of "cc-pvqz" -> "" (spherical)
 ------------------------------------------------------------------------------
       Tag                 Description            Shells   Functions and Types
 ---------------- ------------------------------  ------  ---------------------
 *                          cc-pvqz                   on all atoms 




 Summary of "cc-pv5z" -> "" (spherical)
 ------------------------------------------------------------------------------
       Tag                 Description            Shells   Functions and Types
 ---------------- ------------------------------  ------  ---------------------
 *                          cc-pv5z                   on all atoms 




 Summary of "cc-pv6z" -> "" (spherical)
 ------------------------------------------------------------------------------
       Tag                 Description            Shells   Functions and Types
 ---------------- ------------------------------  ------  ---------------------
 *                          cc-pv6z                   on all atoms 


  pbe96 is a nonlocal functional; adding pw91lda local functional. 


                           NWChem Geometry Optimization
                           ----------------------------


  no constraints, skipping    0.0000000000000000     
 maximum gradient threshold         (gmax) =   0.000450
 rms gradient threshold             (grms) =   0.000300
 maximum cartesian step threshold   (xmax) =   0.001800
 rms cartesian step threshold       (xrms) =   0.001200
 fixed trust radius                (trust) =   0.300000
 maximum step size to saddle      (sadstp) =   0.100000
 energy precision                  (eprec) =   5.0D-06
 maximum number of steps          (nptopt) =   40
 initial hessian option           (inhess) =    0
 line search option               (linopt) =    1
 hessian update option            (modupd) =    1
 saddle point option              (modsad) =    0
 initial eigen-mode to follow     (moddir) =    0
 initial variable to follow       (vardir) =    0
 follow first negative mode     (firstneg) =    T
 apply conjugacy                    (opcg) =    F
 source of zmatrix                         =   autoz   


          -------------------
          Energy Minimization
          -------------------


 Names of Z-matrix variables 
    1              2              3              4              5         
    6              7              8              9             10         
   11             12             13             14             15         
   16             17             18             19             20         
   21             22             23             24             25         
   26             27             28             29             30         

 Variables with the same non-blank name are constrained to be equal


 Using diagonal initial Hessian 
 Scaling for Hessian diagonals: bonds = 1.00  angles = 0.25  torsions = 0.10

          --------
          Step   0
          --------


                         Geometry "geometry" -> "geometry"
                         ---------------------------------

 Output coordinates in angstroms (scale by  1.889725989 to convert to a.u.)

  No.       Tag          Charge          X              Y              Z
 ---- ---------------- ---------- -------------- -------------- --------------
    1 C                    6.0000     0.17260109    -1.22074068     0.00000000
    2 C                    6.0000    -0.47115414     0.12585946     0.00000000
    3 C                    6.0000     0.22313530     1.27023170     0.00000000
    4 H                    1.0000    -0.59433050    -2.00165341     0.00000000
    5 H                    1.0000     0.78995232    -1.35759185     0.89312548
    6 H                    1.0000     0.78995232    -1.35759185    -0.89312548
    7 H                    1.0000    -1.55855812     0.16115642     0.00000000
    8 H                    1.0000     1.30915519     1.27398534     0.00000000
    9 H                    1.0000    -0.28366476     2.22959244     0.00000000

      Atomic Mass 
      ----------- 

      C                 12.000000
      H                  1.007825


 Effective nuclear repulsion energy (a.u.)      70.8372708184

            Nuclear Dipole moment (a.u.) 
            ----------------------------
        X                 Y               Z
 ---------------- ---------------- ----------------
     0.0000000000    -0.0000000000     0.0000000000

      Symmetry information
      --------------------

 Group name             Cs        
 Group number              2
 Group order               2
 No. of unique centers     8

      Symmetry unique atoms

     1    2    3    4    5    7    8    9


                                 NWChem DFT Module
                                 -----------------


                      Basis "ao basis" -> "cc-pvdz" (spherical)
                      -----
  C (Carbon)
  ----------
            Exponent  Coefficients 
       -------------- ---------------------------------------------------------
  1 S  6.66500000E+03  0.000692
  1 S  1.00000000E+03  0.005329
  1 S  2.28000000E+02  0.027077
  1 S  6.47100000E+01  0.101718
  1 S  2.10600000E+01  0.274740
  1 S  7.49500000E+00  0.448564
  1 S  2.79700000E+00  0.285074
  1 S  5.21500000E-01  0.015204

  2 S  6.66500000E+03 -0.000146
  2 S  1.00000000E+03 -0.001154
  2 S  2.28000000E+02 -0.005725
  2 S  6.47100000E+01 -0.023312
  2 S  2.10600000E+01 -0.063955
  2 S  7.49500000E+00 -0.149981
  2 S  2.79700000E+00 -0.127262
  2 S  5.21500000E-01  0.544529

  3 S  1.59600000E-01  1.000000

  4 P  9.43900000E+00  0.038109
  4 P  2.00200000E+00  0.209480
  4 P  5.45600000E-01  0.508557

  5 P  1.51700000E-01  1.000000

  6 D  5.50000000E-01  1.000000

  H (Hydrogen)
  ------------
            Exponent  Coefficients 
       -------------- ---------------------------------------------------------
  1 S  1.30100000E+01  0.019685
  1 S  1.96200000E+00  0.137977
  1 S  4.44600000E-01  0.478148

  2 S  1.22000000E-01  1.000000

  3 P  7.27000000E-01  1.000000



 Summary of "ao basis" -> "cc-pvdz" (spherical)
 ------------------------------------------------------------------------------
       Tag                 Description            Shells   Functions and Types
 ---------------- ------------------------------  ------  ---------------------
 C                          cc-pvdz                  6       14   3s2p1d
 H                          cc-pvdz                  3        5   2s1p




 Summary of "ao basis" -> "cc-pvdz" (spherical)
 ------------------------------------------------------------------------------
       Tag                 Description            Shells   Functions and Types
 ---------------- ------------------------------  ------  ---------------------
 C                          cc-pvdz                  6       14   3s2p1d
 H                          cc-pvdz                  3        5   2s1p


      Symmetry analysis of basis
      --------------------------

        a'         51
        a"         21


 solvent parameters
 solvname_short: h2o     
 solvname_long:  water                              
 dielec:       78.4000
 dielecinf:     1.7769

          ---------------
          -cosmo- solvent
          ---------------
 Cosmo: York-Karplus, doi: 10.1021/jp992097l
 dielectric constant -eps-     =  78.40
 screen = (eps-1)/(eps    )    =   0.98724
 surface charge correction     = lagrangian

 solvent accessible surface
 --------------------------

 ---------- ATOMIC COORDINATES (A.U.) ------------ VDWR(ANG.) --
     1    0.32616877   -2.30686538    0.00000000     2.000
     2   -0.89035222    0.23783990    0.00000000     2.000
     3    0.42166458    2.40038985    0.00000000     2.000
     4   -1.12312179   -3.78257647    0.00000000     1.300
     5    1.49279343   -2.56547660    1.68776243     1.300
     6    1.49279343   -2.56547660   -1.68776243     1.300
     7   -2.94524779    0.30454148    0.00000000     1.300
     8    2.47394458    2.40748321    0.00000000     1.300
     9   -0.53604867    4.21331878    0.00000000     1.300
 number of segments per atom =         32
 number of   points per atom =         32
 atom (   nspa,  nppa )
 ----------------------
    1 (     22,     0 )       0
    2 (     12,     0 )       0
    3 (     18,     0 )       0
    4 (     12,     0 )       0
    5 (     14,     0 )       0
    6 (     14,     0 )       0
    7 (     16,     0 )       0
    8 (     16,     0 )       0
    9 (     16,     0 )       0
 number of -cosmo- surface points =      140
 molecular surface =     94.097 angstrom**2
 molecular volume  =     54.161 angstrom**3
 G(cav/disp)       =      1.330 kcal/mol
 -lineq- algorithm             =   0
 -bem- low  level              =   2
 -bem- from -octahedral-
 gaussian surface charge width =   4.50000
 degree of switching           =   1.00000
 switching function tolerance  =   0.00010
 atomic radii = 
 --------------
    1  6.000  2.000
    2  6.000  2.000
    3  6.000  2.000
    4  1.000  1.300
    5  1.000  1.300
    6  1.000  1.300
    7  1.000  1.300
    8  1.000  1.300
    9  1.000  1.300
 ...... end of -cosmo- initialization ......


  texas integral default override: limxmem =             50000000
  Caching 1-el integrals 

            General Information
            -------------------
          SCF calculation type: DFT
          Wavefunction type:  closed shell.
          No. of atoms     :     9
          No. of electrons :    24
           Alpha electrons :    12
            Beta electrons :    12
          Charge           :     0
          Spin multiplicity:     1
          Use of symmetry is: on ; symmetry adaption is: on 
          Maximum number of iterations:  50
          This is a Direct SCF calculation.
          AO basis - number of functions:    72
                     number of shells:    36
          Convergence on energy requested:  1.00D-06
          Convergence on density requested:  1.00D-05
          Convergence on gradient requested:  5.00D-04

              XC Information
              --------------
          PerdewBurkeErnzerhof Exchange Functional  1.000          
            Perdew 1991 LDA Correlation Functional  1.000 local    
           PerdewBurkeErnz. Correlation Functional  1.000 non-local

             Grid Information
             ----------------
          Grid used for XC integration:  medium    
          Radial quadrature: Mura-Knowles        
          Angular quadrature: Lebedev. 
          Tag              B.-S. Rad. Rad. Pts. Rad. Cut. Ang. Pts.
          ---              ---------- --------- --------- ---------
          C                   0.70       49          10.0       434
          H                   0.35       45          11.0       434
          Grid pruning is: on 
          Number of quadrature shells:   372
          Spatial weights used:  Erf1

          Convergence Information
          -----------------------
          Convergence aids based upon iterative change in 
          total energy or number of iterations. 
          Levelshifting, if invoked, occurs when the 
          HOMO/LUMO gap drops below (HL_TOL):  1.00D-02
          DIIS, if invoked, will attempt to extrapolate 
          using up to (NFOCK): 10 stored Fock matrices.

                    Damping( 0%)  Levelshifting(0.5)       DIIS
                  --------------- ------------------- ---------------
          dE  on:    start            ASAP                start   
          dE off:    2 iters         50 iters            50 iters 


      Screening Tolerance Information
      -------------------------------
          Density screening/tol_rho:  1.00D-10
          AO Gaussian exp screening on grid/accAOfunc:  14
          CD Gaussian exp screening on grid/accCDfunc:  20
          XC Gaussian exp screening on grid/accXCfunc:  20
          Schwarz screening/accCoul:  1.00D-08


      Superposition of Atomic Density Guess
      -------------------------------------

 Sum of atomic energies:        -115.99411233

      Non-variational initial energy
      ------------------------------

 Total energy =    -117.935664
 1-e energy   =    -293.719300
 2-e energy   =     104.946365
 HOMO         =      -0.306653
 LUMO         =       0.006284


      Symmetry analysis of molecular orbitals - initial
      -------------------------------------------------

  Numbering of irreducible representations: 

     1 a'          2 a"      

  Orbital symmetries:

     1 a'          2 a'          3 a'          4 a'          5 a'      
     6 a'          7 a'          8 a"          9 a'         10 a'      
    11 a'         12 a"         13 a"         14 a'         15 a'      
    16 a'         17 a'         18 a"         19 a'         20 a'      
    21 a'         22 a'      

   Time after variat. SCF:      1.0
   Time prior to 1st pass:      1.0

 Grid_pts file          = ./propene-dat.gridpts.00
 Record size in doubles =  12289        No. of grid_pts per rec  =   3070
 Max. records in memory =      5        Max. recs in file   =    107425


           Memory utilization after 1st SCF pass: 
           Heap Space remaining (MW):       13.04            13040424
          Stack Space remaining (MW):       65.54            65535380

   convergence    iter        energy       DeltaE   RMS-Dens  Diis-err    time
 ---------------- ----- ----------------- --------- --------- ---------  ------
     COSMO solvation phase
 d= 0,ls=0.0,diis     1   -117.7078083987 -1.89D+02  6.42D-03  2.50D-01     1.3
 d= 0,ls=0.0,diis     2   -117.7284857293 -2.07D-02  3.38D-03  2.63D-02     1.6
 d= 0,ls=0.0,diis     3   -117.7216779527  6.81D-03  2.28D-03  7.58D-02     1.9
 d= 0,ls=0.0,diis     4   -117.7320304642 -1.04D-02  2.42D-04  6.76D-04     2.2
 d= 0,ls=0.0,diis     5   -117.7321138783 -8.34D-05  7.98D-05  6.24D-05     2.5
  Resetting Diis
 d= 0,ls=0.0,diis     6   -117.7321226872 -8.81D-06  1.00D-05  1.25D-06     2.8
 d= 0,ls=0.0,diis     7   -117.7321228442 -1.57D-07  4.61D-06  6.06D-08     3.1


         Total DFT energy =     -117.732122844236
      One electron energy =     -297.235969151752
           Coulomb energy =      126.899868799943
    Exchange-Corr. energy =      -18.311866509853
 Nuclear repulsion energy =       70.837270818449

             COSMO energy =        0.078573198976

 Numeric. integr. density =       24.000002296981

     Total iterative time =      2.2s


                                   COSMO solvation results
                                   -----------------------

                 gas phase energy =         0.000000000000
                 sol phase energy =      -117.732122844236
 (electrostatic) solvation energy =       117.732122844236 (73878.02 kcal/mol)

                  Occupations of the irreducible representations
                  ----------------------------------------------

                     irrep           alpha         beta
                     --------     --------     --------
                     a'               10.0         10.0
                     a"                2.0          2.0


                       DFT Final Molecular Orbital Analysis
                       ------------------------------------

 Vector    1  Occ=2.000000D+00  E=-9.898910D+00  Symmetry=a'
              MO Center= -4.7D-01,  1.3D-01, -1.6D-19, r^2= 2.8D-02
   Bfn.  Coefficient  Atom+Function         Bfn.  Coefficient  Atom+Function  
  ----- ------------  ---------------      ----- ------------  ---------------
    15      1.007204  2 C  s          

 Vector    2  Occ=2.000000D+00  E=-9.887676D+00  Symmetry=a'
              MO Center=  1.7D-01, -1.2D+00,  1.2D-17, r^2= 2.8D-02
   Bfn.  Coefficient  Atom+Function         Bfn.  Coefficient  Atom+Function  
  ----- ------------  ---------------      ----- ------------  ---------------
     1      1.008044  1 C  s          

 Vector    3  Occ=2.000000D+00  E=-9.884160D+00  Symmetry=a'
              MO Center=  2.2D-01,  1.3D+00, -1.2D-18, r^2= 2.8D-02
   Bfn.  Coefficient  Atom+Function         Bfn.  Coefficient  Atom+Function  
  ----- ------------  ---------------      ----- ------------  ---------------
    29      1.007154  3 C  s          

 Vector    4  Occ=2.000000D+00  E=-7.123451D-01  Symmetry=a'
              MO Center= -9.0D-02,  2.2D-02,  1.9D-16, r^2= 1.6D+00
   Bfn.  Coefficient  Atom+Function         Bfn.  Coefficient  Atom+Function  
  ----- ------------  ---------------      ----- ------------  ---------------
    16      0.290656  2 C  s                 17      0.232315  2 C  s          
     2      0.218953  1 C  s                 30      0.214687  3 C  s          
    31      0.112790  3 C  s                 58      0.102592  7 H  s          
     3      0.097556  1 C  s                 33     -0.085830  3 C  py         
    48      0.084851  5 H  s                 53      0.084851  6 H  s          

 Vector    5  Occ=2.000000D+00  E=-6.141437D-01  Symmetry=a'
              MO Center=  1.1D-01, -1.8D-01, -2.3D-16, r^2= 2.6D+00
   Bfn.  Coefficient  Atom+Function         Bfn.  Coefficient  Atom+Function  
  ----- ------------  ---------------      ----- ------------  ---------------
     2      0.293859  1 C  s                 30     -0.260285  3 C  s          
    19     -0.201370  2 C  py                31     -0.162912  3 C  s          
     3      0.156099  1 C  s                 43      0.150622  4 H  s          
    48      0.138552  5 H  s                 53      0.138552  6 H  s          
    68     -0.130967  9 H  s                 63     -0.109229  8 H  s          

 Vector    6  Occ=2.000000D+00  E=-4.933875D-01  Symmetry=a'
              MO Center= -1.1D-01,  3.5D-01, -4.3D-17, r^2= 2.7D+00
   Bfn.  Coefficient  Atom+Function         Bfn.  Coefficient  Atom+Function  
  ----- ------------  ---------------      ----- ------------  ---------------
    16      0.250275  2 C  s                 58      0.243107  7 H  s          
    63     -0.198081  8 H  s                 30     -0.178851  3 C  s          
    18     -0.157950  2 C  px                17      0.151489  2 C  s          
    32     -0.143922  3 C  px                68     -0.135951  9 H  s          
    31     -0.122908  3 C  s                 33     -0.123483  3 C  py         

 Vector    7  Occ=2.000000D+00  E=-4.122669D-01  Symmetry=a'
              MO Center= -2.0D-01,  4.1D-01, -2.5D-16, r^2= 2.8D+00
   Bfn.  Coefficient  Atom+Function         Bfn.  Coefficient  Atom+Function  
  ----- ------------  ---------------      ----- ------------  ---------------
    33     -0.293087  3 C  py                18      0.280590  2 C  px         
    68     -0.260142  9 H  s                  5      0.216232  1 C  py         
    43     -0.186130  4 H  s                 58     -0.162338  7 H  s          
    32      0.128091  3 C  px                 4      0.098478  1 C  px         
    36     -0.095479  3 C  py                21      0.091467  2 C  px         

 Vector    8  Occ=2.000000D+00  E=-3.706506D-01  Symmetry=a'
              MO Center=  2.9D-01,  1.3D-01, -2.5D-15, r^2= 2.5D+00
   Bfn.  Coefficient  Atom+Function         Bfn.  Coefficient  Atom+Function  
  ----- ------------  ---------------      ----- ------------  ---------------
    32     -0.325006  3 C  px                19      0.304651  2 C  py         
     4      0.273150  1 C  px                63     -0.265675  8 H  s          
    48      0.147974  5 H  s                 53      0.147974  6 H  s          
    22      0.124006  2 C  py                33     -0.117322  3 C  py         
     5     -0.111596  1 C  py                64     -0.108810  8 H  s          

 Vector    9  Occ=2.000000D+00  E=-3.667905D-01  Symmetry=a"
              MO Center=  3.5D-01, -1.1D+00,  4.4D-16, r^2= 1.5D+00
   Bfn.  Coefficient  Atom+Function         Bfn.  Coefficient  Atom+Function  
  ----- ------------  ---------------      ----- ------------  ---------------
     6      0.420624  1 C  pz                48      0.285593  5 H  s          
    53     -0.285593  6 H  s                 20      0.173386  2 C  pz         
     9      0.156801  1 C  pz                49      0.115746  5 H  s          
    54     -0.115746  6 H  s                 23      0.097433  2 C  pz         
    34      0.077084  3 C  pz                37      0.035407  3 C  pz         

 Vector   10  Occ=2.000000D+00  E=-3.172499D-01  Symmetry=a'
              MO Center= -1.3D-01, -5.6D-01,  3.8D-16, r^2= 2.9D+00
   Bfn.  Coefficient  Atom+Function         Bfn.  Coefficient  Atom+Function  
  ----- ------------  ---------------      ----- ------------  ---------------
    43     -0.331295  4 H  s                  5      0.301692  1 C  py         
    33      0.279711  3 C  py                19     -0.243033  2 C  py         
     4      0.218361  1 C  px                68      0.195241  9 H  s          
    44     -0.171709  4 H  s                  8      0.132310  1 C  py         
    69      0.110929  9 H  s                 31     -0.104814  3 C  s          

 Vector   11  Occ=2.000000D+00  E=-2.988335D-01  Symmetry=a'
              MO Center= -1.3D-01,  2.4D-01, -2.4D-17, r^2= 2.8D+00
   Bfn.  Coefficient  Atom+Function         Bfn.  Coefficient  Atom+Function  
  ----- ------------  ---------------      ----- ------------  ---------------
    18      0.292329  2 C  px                58     -0.292910  7 H  s          
    32     -0.233385  3 C  px                63     -0.232626  8 H  s          
     4     -0.231016  1 C  px                68      0.204068  9 H  s          
    59     -0.186379  7 H  s                  5      0.175089  1 C  py         
    64     -0.167910  8 H  s                  3      0.131574  1 C  s          

 Vector   12  Occ=2.000000D+00  E=-2.240103D-01  Symmetry=a"
              MO Center= -1.1D-02,  5.4D-01,  3.2D-16, r^2= 1.9D+00
   Bfn.  Coefficient  Atom+Function         Bfn.  Coefficient  Atom+Function  
  ----- ------------  ---------------      ----- ------------  ---------------
    34      0.414302  3 C  pz                20      0.373368  2 C  pz         
    37      0.289710  3 C  pz                23      0.249317  2 C  pz         
     6     -0.142304  1 C  pz                48     -0.138244  5 H  s          
    53      0.138244  6 H  s                  9     -0.079290  1 C  pz         
    49     -0.078375  5 H  s                 54      0.078375  6 H  s          

 Vector   13  Occ=0.000000D+00  E=-2.484302D-02  Symmetry=a"
              MO Center= -3.6D-02,  5.2D-01,  1.2D-15, r^2= 2.4D+00
   Bfn.  Coefficient  Atom+Function         Bfn.  Coefficient  Atom+Function  
  ----- ------------  ---------------      ----- ------------  ---------------
    37     -0.576229  3 C  pz                23      0.569782  2 C  pz         
    20      0.448403  2 C  pz                34     -0.405967  3 C  pz         
    49     -0.305520  5 H  s                 54      0.305520  6 H  s          
     9      0.122126  1 C  pz                48     -0.119604  5 H  s          
    53      0.119604  6 H  s                 13      0.027963  1 C  d  1       

 Vector   14  Occ=0.000000D+00  E= 5.614925D-02  Symmetry=a'
              MO Center= -5.4D-01, -3.6D-01, -6.8D-16, r^2= 6.3D+00
   Bfn.  Coefficient  Atom+Function         Bfn.  Coefficient  Atom+Function  
  ----- ------------  ---------------      ----- ------------  ---------------
     3      1.273030  1 C  s                 44     -0.904164  4 H  s          
    59     -0.887501  7 H  s                 17      0.798900  2 C  s          
    69     -0.719564  9 H  s                 31      0.686093  3 C  s          
    49     -0.460250  5 H  s                 54     -0.460250  6 H  s          
    21     -0.401788  2 C  px                 8     -0.360042  1 C  py         

 Vector   15  Occ=0.000000D+00  E= 7.641403D-02  Symmetry=a'
              MO Center=  1.7D-01, -4.4D-01, -7.2D-16, r^2= 6.0D+00
   Bfn.  Coefficient  Atom+Function         Bfn.  Coefficient  Atom+Function  
  ----- ------------  ---------------      ----- ------------  ---------------
     3      1.255024  1 C  s                 59      0.995141  7 H  s          
    49     -0.964015  5 H  s                 54     -0.964015  6 H  s          
    64     -0.674895  8 H  s                 17     -0.651805  2 C  s          
     7      0.490965  1 C  px                69      0.489133  9 H  s          
    35      0.379829  3 C  px                21      0.328559  2 C  px         

 Vector   16  Occ=0.000000D+00  E= 9.235412D-02  Symmetry=a'
              MO Center=  5.3D-01,  9.2D-01,  3.4D-16, r^2= 6.2D+00
   Bfn.  Coefficient  Atom+Function         Bfn.  Coefficient  Atom+Function  
  ----- ------------  ---------------      ----- ------------  ---------------
    31      1.629776  3 C  s                 64     -1.361938  8 H  s          
     3     -1.035853  1 C  s                 69     -0.961439  9 H  s          
    44      0.674228  4 H  s                 36      0.387299  3 C  py         
    35      0.336225  3 C  px                59      0.322173  7 H  s          
    49      0.292634  5 H  s                 54      0.292634  6 H  s          

 Vector   17  Occ=0.000000D+00  E= 1.288975D-01  Symmetry=a'
              MO Center=  1.9D-01,  5.1D-01,  4.0D-14, r^2= 7.0D+00
   Bfn.  Coefficient  Atom+Function         Bfn.  Coefficient  Atom+Function  
  ----- ------------  ---------------      ----- ------------  ---------------
    69      1.437633  9 H  s                 64     -1.207859  8 H  s          
    44     -1.113913  4 H  s                 35      0.908132  3 C  px         
     8     -0.641899  1 C  py                17      0.636514  2 C  s          
     7     -0.561992  1 C  px                49      0.564646  5 H  s          
    54      0.564646  6 H  s                 36     -0.457802  3 C  py         

 Vector   18  Occ=0.000000D+00  E= 1.328446D-01  Symmetry=a"
              MO Center=  8.5D-01, -1.2D+00, -5.0D-14, r^2= 3.9D+00
   Bfn.  Coefficient  Atom+Function         Bfn.  Coefficient  Atom+Function  
  ----- ------------  ---------------      ----- ------------  ---------------
    49      1.628904  5 H  s                 54     -1.628904  6 H  s          
     9     -1.276630  1 C  pz                 6     -0.420319  1 C  pz         
    23      0.385669  2 C  pz                37     -0.199982  3 C  pz         
    34     -0.140145  3 C  pz                20      0.108730  2 C  pz         
    48      0.068736  5 H  s                 53     -0.068736  6 H  s          

 Vector   19  Occ=0.000000D+00  E= 1.422118D-01  Symmetry=a'
              MO Center= -8.9D-01, -6.0D-01,  8.7D-15, r^2= 5.8D+00
   Bfn.  Coefficient  Atom+Function         Bfn.  Coefficient  Atom+Function  
  ----- ------------  ---------------      ----- ------------  ---------------
    17      1.795681  2 C  s                 59     -1.427535  7 H  s          
    44      1.413008  4 H  s                  7      1.039393  1 C  px         
    69      0.734619  9 H  s                  3     -0.729620  1 C  s          
    21     -0.514668  2 C  px                49     -0.514707  5 H  s          
    54     -0.514707  6 H  s                 35      0.462879  3 C  px         

 Vector   20  Occ=0.000000D+00  E= 2.268588D-01  Symmetry=a'
              MO Center=  6.8D-02, -2.3D-01, -2.1D-16, r^2= 5.5D+00
   Bfn.  Coefficient  Atom+Function         Bfn.  Coefficient  Atom+Function  
  ----- ------------  ---------------      ----- ------------  ---------------
    17      2.461411  2 C  s                 21      1.914813  2 C  px         
     8     -1.887990  1 C  py                 3     -1.636665  1 C  s          
    59      1.398355  7 H  s                 36      1.372026  3 C  py         
    31     -1.067338  3 C  s                 64      1.041030  8 H  s          
    69     -1.038249  9 H  s                 22     -0.966619  2 C  py         

 Vector   21  Occ=0.000000D+00  E= 2.839933D-01  Symmetry=a'
              MO Center=  2.4D-01,  7.8D-01,  8.1D-16, r^2= 4.1D+00
   Bfn.  Coefficient  Atom+Function         Bfn.  Coefficient  Atom+Function  
  ----- ------------  ---------------      ----- ------------  ---------------
    31      3.359285  3 C  s                 22     -2.906895  2 C  py         
    17     -2.797383  2 C  s                 36     -2.443615  3 C  py         
    35     -1.673704  3 C  px                21     -1.397480  2 C  px         
     7      1.055709  1 C  px                64      0.730473  8 H  s          
    59     -0.571258  7 H  s                  3     -0.526495  1 C  s          

 Vector   22  Occ=0.000000D+00  E= 3.747460D-01  Symmetry=a'
              MO Center= -2.8D-01, -5.6D-01, -2.6D-15, r^2= 3.5D+00
   Bfn.  Coefficient  Atom+Function         Bfn.  Coefficient  Atom+Function  
  ----- ------------  ---------------      ----- ------------  ---------------
    22      1.263050  2 C  py                 3      0.645193  1 C  s          
    31     -0.604490  3 C  s                 43      0.552626  4 H  s          
    44     -0.472445  4 H  s                 35      0.461970  3 C  px         
     8      0.365639  1 C  py                58      0.360365  7 H  s          
    49      0.345282  5 H  s                 54      0.345282  6 H  s          

 Vector   23  Occ=0.000000D+00  E= 3.916897D-01  Symmetry=a'
              MO Center= -1.6D-01,  3.3D-01, -1.9D-16, r^2= 4.3D+00
   Bfn.  Coefficient  Atom+Function         Bfn.  Coefficient  Atom+Function  
  ----- ------------  ---------------      ----- ------------  ---------------
     8      0.702910  1 C  py                22     -0.621953  2 C  py         
    63     -0.503048  8 H  s                 36      0.453649  3 C  py         
    35      0.449043  3 C  px                19      0.366020  2 C  py         
    31      0.364419  3 C  s                  5     -0.330501  1 C  py         
    69     -0.295941  9 H  s                 58      0.291972  7 H  s          

 Vector   24  Occ=0.000000D+00  E= 4.246720D-01  Symmetry=a"
              MO Center=  6.7D-02, -5.0D-01, -6.7D-15, r^2= 3.2D+00
   Bfn.  Coefficient  Atom+Function         Bfn.  Coefficient  Atom+Function  
  ----- ------------  ---------------      ----- ------------  ---------------
     9      0.740790  1 C  pz                48     -0.559126  5 H  s          
    53      0.559126  6 H  s                 20     -0.510381  2 C  pz         
    37      0.431307  3 C  pz                34     -0.376522  3 C  pz         
    13      0.143271  1 C  d  1              23      0.136563  2 C  pz         
    49      0.120083  5 H  s                 54     -0.120083  6 H  s          

 Vector   25  Occ=0.000000D+00  E= 4.490660D-01  Symmetry=a'
              MO Center= -1.0D-01, -1.8D-01, -6.8D-16, r^2= 3.0D+00
   Bfn.  Coefficient  Atom+Function         Bfn.  Coefficient  Atom+Function  
  ----- ------------  ---------------      ----- ------------  ---------------
     7      0.885359  1 C  px                22     -0.741935  2 C  py         
     8     -0.612688  1 C  py                 5      0.490241  1 C  py         
    21     -0.458538  2 C  px                59     -0.427818  7 H  s          
     4     -0.411757  1 C  px                58      0.399824  7 H  s          
     3     -0.396954  1 C  s                 33     -0.300912  3 C  py         

 Vector   26  Occ=0.000000D+00  E= 4.761256D-01  Symmetry=a"
              MO Center=  4.8D-02,  2.1D-01,  1.5D-15, r^2= 4.1D+00
   Bfn.  Coefficient  Atom+Function         Bfn.  Coefficient  Atom+Function  
  ----- ------------  ---------------      ----- ------------  ---------------
     9      0.823805  1 C  pz                34      0.746593  3 C  pz         
    37     -0.738585  3 C  pz                23     -0.440595  2 C  pz         
    48     -0.409779  5 H  s                 53      0.409779  6 H  s          
    20      0.221714  2 C  pz                 6     -0.179407  1 C  pz         
    49      0.163184  5 H  s                 54     -0.163184  6 H  s          

 Vector   27  Occ=0.000000D+00  E= 4.839278D-01  Symmetry=a'
              MO Center=  3.4D-01,  1.1D+00, -6.1D-15, r^2= 3.2D+00
   Bfn.  Coefficient  Atom+Function         Bfn.  Coefficient  Atom+Function  
  ----- ------------  ---------------      ----- ------------  ---------------
    31      0.912618  3 C  s                 22     -0.825544  2 C  py         
    68     -0.767890  9 H  s                  7      0.743897  1 C  px         
    69      0.669404  9 H  s                 63     -0.659401  8 H  s          
     3     -0.428141  1 C  s                  8     -0.407425  1 C  py         
    21     -0.378960  2 C  px                64      0.305184  8 H  s          

 Vector   28  Occ=0.000000D+00  E= 5.447090D-01  Symmetry=a"
              MO Center= -3.0D-01,  3.2D-01,  4.1D-15, r^2= 3.2D+00
   Bfn.  Coefficient  Atom+Function         Bfn.  Coefficient  Atom+Function  
  ----- ------------  ---------------      ----- ------------  ---------------
    23      1.477881  2 C  pz                37     -0.997464  3 C  pz         
    20     -0.801186  2 C  pz                34      0.480529  3 C  pz         
    49     -0.336430  5 H  s                 54      0.336430  6 H  s          
    48      0.223197  5 H  s                 53     -0.223197  6 H  s          
     9     -0.217951  1 C  pz                 6     -0.137157  1 C  pz         

 Vector   29  Occ=0.000000D+00  E= 5.579529D-01  Symmetry=a'
              MO Center= -3.9D-02, -2.0D-01, -7.7D-15, r^2= 4.2D+00
   Bfn.  Coefficient  Atom+Function         Bfn.  Coefficient  Atom+Function  
  ----- ------------  ---------------      ----- ------------  ---------------
    22      1.322379  2 C  py                31     -1.196145  3 C  s          
     7     -1.001410  1 C  px                64      0.919235  8 H  s          
    21      0.709139  2 C  px                58      0.650029  7 H  s          
    69     -0.497594  9 H  s                 43     -0.470799  4 H  s          
    59     -0.457513  7 H  s                  3      0.447703  1 C  s          

 Vector   30  Occ=0.000000D+00  E= 6.030931D-01  Symmetry=a'
              MO Center=  2.1D-01, -1.0D+00,  6.3D-15, r^2= 3.8D+00
   Bfn.  Coefficient  Atom+Function         Bfn.  Coefficient  Atom+Function  
  ----- ------------  ---------------      ----- ------------  ---------------
    44      1.625079  4 H  s                  7      1.590957  1 C  px         
     8      1.196614  1 C  py                49     -0.930869  5 H  s          
    54     -0.930869  6 H  s                  3      0.696754  1 C  s          
     4     -0.691998  1 C  px                36      0.652743  3 C  py         
    22      0.635021  2 C  py                69     -0.634277  9 H  s          

 Vector   31  Occ=0.000000D+00  E= 6.099004D-01  Symmetry=a"
              MO Center=  4.3D-01, -1.2D+00, -3.4D-14, r^2= 3.2D+00
   Bfn.  Coefficient  Atom+Function         Bfn.  Coefficient  Atom+Function  
  ----- ------------  ---------------      ----- ------------  ---------------
     9      2.290731  1 C  pz                49     -1.677490  5 H  s          
    54      1.677490  6 H  s                  6     -0.867724  1 C  pz         
    23     -0.707614  2 C  pz                37      0.451137  3 C  pz         
    13     -0.213436  1 C  d  1              34     -0.207584  3 C  pz         
    20      0.180534  2 C  pz                48      0.174881  5 H  s          

 Vector   32  Occ=0.000000D+00  E= 6.207950D-01  Symmetry=a'
              MO Center= -2.8D-01, -4.6D-01,  3.0D-14, r^2= 3.6D+00
   Bfn.  Coefficient  Atom+Function         Bfn.  Coefficient  Atom+Function  
  ----- ------------  ---------------      ----- ------------  ---------------
    21      1.756066  2 C  px                 3     -1.539957  1 C  s          
    59      1.180330  7 H  s                 17      0.908580  2 C  s          
    22     -0.896585  2 C  py                 8     -0.837966  1 C  py         
    18     -0.580395  2 C  px                 7      0.524125  1 C  px         
    43     -0.500202  4 H  s                 44      0.479915  4 H  s          

 Vector   33  Occ=0.000000D+00  E= 6.401546D-01  Symmetry=a'
              MO Center=  7.6D-02,  2.8D-01,  6.0D-16, r^2= 5.1D+00
   Bfn.  Coefficient  Atom+Function         Bfn.  Coefficient  Atom+Function  
  ----- ------------  ---------------      ----- ------------  ---------------
    35      1.990011  3 C  px                64     -1.565574  8 H  s          
    69      1.371106  9 H  s                 22      1.145817  2 C  py         
    44      1.134948  4 H  s                  8      1.075598  1 C  py         
    21     -0.934893  2 C  px                36     -0.866947  3 C  py         
    59     -0.737857  7 H  s                 32     -0.614282  3 C  px         

 Vector   34  Occ=0.000000D+00  E= 6.503844D-01  Symmetry=a'
              MO Center= -2.1D-01, -3.6D-01,  2.1D-14, r^2= 4.3D+00
   Bfn.  Coefficient  Atom+Function         Bfn.  Coefficient  Atom+Function  
  ----- ------------  ---------------      ----- ------------  ---------------
    21      2.309044  2 C  px                59      1.669618  7 H  s          
     8     -1.304228  1 C  py                31     -1.043925  3 C  s          
    17      0.950662  2 C  s                 35      0.890222  3 C  px         
    44     -0.810046  4 H  s                 64     -0.605485  8 H  s          
    18     -0.561601  2 C  px                49     -0.522960  5 H  s          

 Vector   35  Occ=0.000000D+00  E= 6.938993D-01  Symmetry=a'
              MO Center=  1.5D-01,  3.8D-01, -3.1D-15, r^2= 4.6D+00
   Bfn.  Coefficient  Atom+Function         Bfn.  Coefficient  Atom+Function  
  ----- ------------  ---------------      ----- ------------  ---------------
    22      2.588764  2 C  py                36      2.127406  3 C  py         
     8      1.473608  1 C  py                35      1.277002  3 C  px         
    69     -1.147696  9 H  s                 64     -1.070792  8 H  s          
    31     -0.874271  3 C  s                 49      0.726665  5 H  s          
    54      0.726665  6 H  s                  7     -0.687623  1 C  px         

 Vector   36  Occ=0.000000D+00  E= 7.696640D-01  Symmetry=a'
              MO Center= -8.3D-02,  6.3D-01,  1.0D-15, r^2= 4.1D+00
   Bfn.  Coefficient  Atom+Function         Bfn.  Coefficient  Atom+Function  
  ----- ------------  ---------------      ----- ------------  ---------------
    31      2.532043  3 C  s                 17      2.427069  2 C  s          
    30     -1.137417  3 C  s                 16     -1.076414  2 C  s          
    59     -0.944803  7 H  s                 64     -0.895370  8 H  s          
     7      0.835615  1 C  px                69     -0.838345  9 H  s          
    21     -0.782137  2 C  px                22     -0.676713  2 C  py         

 Vector   37  Occ=0.000000D+00  E= 8.063805D-01  Symmetry=a"
              MO Center= -9.6D-03, -3.2D-01, -2.4D-15, r^2= 2.4D+00
   Bfn.  Coefficient  Atom+Function         Bfn.  Coefficient  Atom+Function  
  ----- ------------  ---------------      ----- ------------  ---------------
     9      0.422544  1 C  pz                27     -0.376650  2 C  d  1       
    11      0.362239  1 C  d -1              49     -0.342261  5 H  s          
    54      0.342261  6 H  s                 41     -0.256127  3 C  d  1       
     6     -0.193593  1 C  pz                51      0.191420  5 H  py         
    56     -0.191420  6 H  py                25     -0.171724  2 C  d -1       

 Vector   38  Occ=0.000000D+00  E= 9.441628D-01  Symmetry=a"
              MO Center=  1.7D-01,  8.0D-01, -6.0D-15, r^2= 2.6D+00
   Bfn.  Coefficient  Atom+Function         Bfn.  Coefficient  Atom+Function  
  ----- ------------  ---------------      ----- ------------  ---------------
    39      0.430511  3 C  d -1              72      0.357508  9 H  pz         
    41      0.301001  3 C  d  1              11      0.298900  1 C  d -1       
     9      0.259944  1 C  pz                23     -0.207820  2 C  pz         
    67     -0.208797  8 H  pz                25     -0.186836  2 C  d -1       
    51      0.142839  5 H  py                56     -0.142839  6 H  py         

 Vector   39  Occ=0.000000D+00  E= 9.657285D-01  Symmetry=a'
              MO Center= -4.0D-01,  7.3D-01,  6.3D-15, r^2= 3.6D+00
   Bfn.  Coefficient  Atom+Function         Bfn.  Coefficient  Atom+Function  
  ----- ------------  ---------------      ----- ------------  ---------------
    22      3.526528  2 C  py                31     -3.302453  3 C  s          
     3      3.184148  1 C  s                 35      3.139325  3 C  px         
    21     -1.864762  2 C  px                17      1.732846  2 C  s          
    69      1.045058  9 H  s                 59     -0.930715  7 H  s          
     7     -0.854764  1 C  px                64     -0.789079  8 H  s          

 Vector   40  Occ=0.000000D+00  E= 9.692233D-01  Symmetry=a"
              MO Center= -2.8D-02,  7.2D-01, -5.1D-15, r^2= 1.8D+00
   Bfn.  Coefficient  Atom+Function         Bfn.  Coefficient  Atom+Function  
  ----- ------------  ---------------      ----- ------------  ---------------
    41      0.442693  3 C  d  1              27     -0.339299  2 C  d  1       
    67     -0.328705  8 H  pz                25      0.300329  2 C  d -1       
    62     -0.271033  7 H  pz                39     -0.224626  3 C  d -1       
     9      0.214929  1 C  pz                34     -0.166804  3 C  pz         
    37      0.153192  3 C  pz                20     -0.124525  2 C  pz         

 Vector   41  Occ=0.000000D+00  E= 9.915092D-01  Symmetry=a'
              MO Center=  1.9D-01,  2.3D-01,  4.6D-15, r^2= 3.3D+00
   Bfn.  Coefficient  Atom+Function         Bfn.  Coefficient  Atom+Function  
  ----- ------------  ---------------      ----- ------------  ---------------
    17      5.144732  2 C  s                 31     -4.704619  3 C  s          
    36      2.016224  3 C  py                21      1.529820  2 C  px         
    30      1.192317  3 C  s                 16     -1.134029  2 C  s          
     7      0.836190  1 C  px                64      0.637564  8 H  s          
     3     -0.601740  1 C  s                 29      0.551024  3 C  s          

 Vector   42  Occ=0.000000D+00  E= 1.119356D+00  Symmetry=a'
              MO Center= -5.9D-04, -5.9D-01, -1.1D-15, r^2= 3.3D+00
   Bfn.  Coefficient  Atom+Function         Bfn.  Coefficient  Atom+Function  
  ----- ------------  ---------------      ----- ------------  ---------------
     3      5.481720  1 C  s                 17     -2.934425  2 C  s          
     2     -1.742760  1 C  s                 31      1.181857  3 C  s          
    22      0.917355  2 C  py                 1     -0.869623  1 C  s          
     8      0.798508  1 C  py                43     -0.658809  4 H  s          
    44     -0.558722  4 H  s                 48     -0.538506  5 H  s          

 Vector   43  Occ=0.000000D+00  E= 1.225041D+00  Symmetry=a'
              MO Center= -2.6D-01, -7.0D-01, -1.2D-14, r^2= 3.1D+00
   Bfn.  Coefficient  Atom+Function         Bfn.  Coefficient  Atom+Function  
  ----- ------------  ---------------      ----- ------------  ---------------
    21      3.799195  2 C  px                31     -3.232778  3 C  s          
    17      2.508291  2 C  s                 36      1.592679  3 C  py         
    59      1.269363  7 H  s                  8     -1.175749  1 C  py         
     3     -1.102231  1 C  s                 35     -0.887487  3 C  px         
    58      0.776542  7 H  s                  7     -0.709498  1 C  px         

 Vector   44  Occ=0.000000D+00  E= 1.299261D+00  Symmetry=a"
              MO Center= -3.8D-02, -4.0D-01,  3.8D-16, r^2= 2.8D+00
   Bfn.  Coefficient  Atom+Function         Bfn.  Coefficient  Atom+Function  
  ----- ------------  ---------------      ----- ------------  ---------------
    23      0.742673  2 C  pz                 9     -0.619013  1 C  pz         
    25     -0.447376  2 C  d -1              51     -0.406737  5 H  py         
    56      0.406737  6 H  py                62     -0.368235  7 H  pz         
    27     -0.355709  2 C  d  1              37     -0.319312  3 C  pz         
    72      0.224192  9 H  pz                11     -0.211581  1 C  d -1       

 Vector   45  Occ=0.000000D+00  E= 1.356834D+00  Symmetry=a'
              MO Center=  1.1D-01,  4.8D-01,  3.1D-14, r^2= 3.3D+00
   Bfn.  Coefficient  Atom+Function         Bfn.  Coefficient  Atom+Function  
  ----- ------------  ---------------      ----- ------------  ---------------
    17     -4.048884  2 C  s                  3      3.834008  1 C  s          
    36     -1.375486  3 C  py                21     -1.278933  2 C  px         
    22      1.172781  2 C  py                 8      1.055374  1 C  py         
     2     -0.721573  1 C  s                 31      0.696632  3 C  s          
    68      0.605098  9 H  s                 16      0.550701  2 C  s          

 Vector   46  Occ=0.000000D+00  E= 1.359738D+00  Symmetry=a"
              MO Center=  3.7D-01, -1.5D+00, -1.8D-14, r^2= 1.6D+00
   Bfn.  Coefficient  Atom+Function         Bfn.  Coefficient  Atom+Function  
  ----- ------------  ---------------      ----- ------------  ---------------
    47      0.573340  4 H  pz                50      0.492792  5 H  px         
    55     -0.492792  6 H  px                52     -0.324012  5 H  pz         
    57     -0.324012  6 H  pz                51      0.178633  5 H  py         
    56     -0.178633  6 H  py                25     -0.056856  2 C  d -1       
    67     -0.040784  8 H  pz                 9      0.035753  1 C  pz         

 Vector   47  Occ=0.000000D+00  E= 1.424157D+00  Symmetry=a'
              MO Center=  4.3D-01,  1.6D+00,  9.2D-16, r^2= 1.9D+00
   Bfn.  Coefficient  Atom+Function         Bfn.  Coefficient  Atom+Function  
  ----- ------------  ---------------      ----- ------------  ---------------
    35      1.914786  3 C  px                22      1.064757  2 C  py         
    31     -0.800434  3 C  s                 36     -0.733377  3 C  py         
    63     -0.686076  8 H  s                 17      0.678002  2 C  s          
    70     -0.647066  9 H  px                69      0.633136  9 H  s          
    68      0.628129  9 H  s                 64     -0.605107  8 H  s          

 Vector   48  Occ=0.000000D+00  E= 1.446760D+00  Symmetry=a'
              MO Center= -2.3D-01,  1.8D-01, -6.4D-16, r^2= 2.7D+00
   Bfn.  Coefficient  Atom+Function         Bfn.  Coefficient  Atom+Function  
  ----- ------------  ---------------      ----- ------------  ---------------
    22      1.744567  2 C  py                31     -1.020411  3 C  s          
     3      0.702165  1 C  s                 35      0.521839  3 C  px         
     7     -0.513649  1 C  px                21     -0.470214  2 C  px         
    58     -0.467521  7 H  s                 36     -0.459075  3 C  py         
    43     -0.453912  4 H  s                 24      0.418595  2 C  d -2       

 Vector   49  Occ=0.000000D+00  E= 1.496295D+00  Symmetry=a"
              MO Center=  1.7D-01,  6.4D-01,  6.3D-16, r^2= 3.0D+00
   Bfn.  Coefficient  Atom+Function         Bfn.  Coefficient  Atom+Function  
  ----- ------------  ---------------      ----- ------------  ---------------
    37      0.664037  3 C  pz                25     -0.539739  2 C  d -1       
    67     -0.534776  8 H  pz                23     -0.509904  2 C  pz         
    72     -0.487682  9 H  pz                13      0.401153  1 C  d  1       
    39     -0.371149  3 C  d -1              48      0.281319  5 H  s          
    53     -0.281319  6 H  s                 27      0.246765  2 C  d  1       

 Vector   50  Occ=0.000000D+00  E= 1.549597D+00  Symmetry=a'
              MO Center= -3.2D-01, -2.7D-01,  1.4D-14, r^2= 3.0D+00
   Bfn.  Coefficient  Atom+Function         Bfn.  Coefficient  Atom+Function  
  ----- ------------  ---------------      ----- ------------  ---------------
    22      1.322516  2 C  py                21      1.116657  2 C  px         
     7     -1.103817  1 C  px                31     -0.824350  3 C  s          
    30     -0.704845  3 C  s                 17      0.628074  2 C  s          
    36      0.438297  3 C  py                61     -0.431732  7 H  py         
    46     -0.380001  4 H  py                16     -0.357719  2 C  s          

 Vector   51  Occ=0.000000D+00  E= 1.568759D+00  Symmetry=a'
              MO Center= -4.4D-02, -9.5D-03,  1.8D-13, r^2= 3.3D+00
   Bfn.  Coefficient  Atom+Function         Bfn.  Coefficient  Atom+Function  
  ----- ------------  ---------------      ----- ------------  ---------------
     3      1.911675  1 C  s                 22      1.580289  2 C  py         
    17     -1.183705  2 C  s                 35      0.996334  3 C  px         
    21     -0.909132  2 C  px                16      0.866301  2 C  s          
     8      0.747797  1 C  py                64     -0.560780  8 H  s          
    48     -0.447897  5 H  s                 53     -0.447897  6 H  s          

 Vector   52  Occ=0.000000D+00  E= 1.572288D+00  Symmetry=a"
              MO Center= -2.8D-02, -8.6D-01, -2.1D-13, r^2= 2.9D+00
   Bfn.  Coefficient  Atom+Function         Bfn.  Coefficient  Atom+Function  
  ----- ------------  ---------------      ----- ------------  ---------------
     9      1.339738  1 C  pz                23     -0.678896  2 C  pz         
    48     -0.613442  5 H  s                 53      0.613442  6 H  s          
    13     -0.570139  1 C  d  1              62      0.569739  7 H  pz         
    47     -0.333224  4 H  pz                52     -0.328646  5 H  pz         
    57     -0.328646  6 H  pz                37      0.247179  3 C  pz         

 Vector   53  Occ=0.000000D+00  E= 1.607725D+00  Symmetry=a'
              MO Center=  1.8D-01, -3.3D-01,  1.5D-15, r^2= 3.6D+00
   Bfn.  Coefficient  Atom+Function         Bfn.  Coefficient  Atom+Function  
  ----- ------------  ---------------      ----- ------------  ---------------
     3      0.891226  1 C  s                  7     -0.880518  1 C  px         
    35      0.842939  3 C  px                31     -0.792184  3 C  s          
    16      0.728319  2 C  s                 22      0.698103  2 C  py         
    43     -0.530450  4 H  s                 36      0.505935  3 C  py         
    45      0.423558  4 H  px                40      0.384196  3 C  d  0       

 Vector   54  Occ=0.000000D+00  E= 1.647760D+00  Symmetry=a"
              MO Center= -4.2D-01,  2.5D-01,  2.2D-16, r^2= 3.4D+00
   Bfn.  Coefficient  Atom+Function         Bfn.  Coefficient  Atom+Function  
  ----- ------------  ---------------      ----- ------------  ---------------
     9      0.841876  1 C  pz                62     -0.655680  7 H  pz         
    72     -0.608045  9 H  pz                27      0.548360  2 C  d  1       
    47     -0.404324  4 H  pz                41      0.335167  3 C  d  1       
    39      0.324961  3 C  d -1              52     -0.265644  5 H  pz         
    57     -0.265644  6 H  pz                48     -0.237444  5 H  s          

 Vector   55  Occ=0.000000D+00  E= 1.667763D+00  Symmetry=a'
              MO Center=  1.6D-01, -7.0D-01,  4.9D-15, r^2= 3.0D+00
   Bfn.  Coefficient  Atom+Function         Bfn.  Coefficient  Atom+Function  
  ----- ------------  ---------------      ----- ------------  ---------------
     3      2.078956  1 C  s                 17     -1.890566  2 C  s          
     8      1.877825  1 C  py                22      1.143239  2 C  py         
     7     -0.705707  1 C  px                31     -0.661261  3 C  s          
    36      0.610837  3 C  py                19      0.598481  2 C  py         
    10     -0.530024  1 C  d -2              26      0.441427  2 C  d  0       

 Vector   56  Occ=0.000000D+00  E= 1.692543D+00  Symmetry=a"
              MO Center=  4.5D-01,  4.9D-01,  6.9D-15, r^2= 3.2D+00
   Bfn.  Coefficient  Atom+Function         Bfn.  Coefficient  Atom+Function  
  ----- ------------  ---------------      ----- ------------  ---------------
    67      0.708358  8 H  pz                39     -0.545641  3 C  d -1       
    41      0.531831  3 C  d  1               9      0.455426  1 C  pz         
    13      0.417574  1 C  d  1              72      0.406255  9 H  pz         
    11      0.305491  1 C  d -1              47     -0.301933  4 H  pz         
    49     -0.295653  5 H  s                 54      0.295653  6 H  s          

 Vector   57  Occ=0.000000D+00  E= 1.749665D+00  Symmetry=a'
              MO Center= -7.5D-02, -4.0D-01,  5.0D-16, r^2= 3.3D+00
   Bfn.  Coefficient  Atom+Function         Bfn.  Coefficient  Atom+Function  
  ----- ------------  ---------------      ----- ------------  ---------------
     3      2.561528  1 C  s                 22      2.263470  2 C  py         
    31     -2.093591  3 C  s                  8      1.014349  1 C  py         
    36      0.855301  3 C  py                 7     -0.607427  1 C  px         
    35      0.523180  3 C  px                43     -0.479690  4 H  s          
    61     -0.463334  7 H  py                17     -0.455660  2 C  s          

 Vector   58  Occ=0.000000D+00  E= 1.877657D+00  Symmetry=a'
              MO Center= -4.6D-02,  2.2D-01, -2.0D-17, r^2= 3.2D+00
   Bfn.  Coefficient  Atom+Function         Bfn.  Coefficient  Atom+Function  
  ----- ------------  ---------------      ----- ------------  ---------------
    31     -4.065406  3 C  s                 17      3.849949  2 C  s          
    22      2.021804  2 C  py                36      1.847106  3 C  py         
    35      1.195622  3 C  px                21      0.774016  2 C  px         
    40      0.767586  3 C  d  0               3      0.677804  1 C  s          
    19      0.679760  2 C  py                26     -0.612152  2 C  d  0       

 Vector   59  Occ=0.000000D+00  E= 1.908253D+00  Symmetry=a"
              MO Center= -8.8D-02,  5.0D-01,  1.9D-14, r^2= 3.1D+00
   Bfn.  Coefficient  Atom+Function         Bfn.  Coefficient  Atom+Function  
  ----- ------------  ---------------      ----- ------------  ---------------
    39      0.731846  3 C  d -1              72     -0.640266  9 H  pz         
    27     -0.636558  2 C  d  1              62      0.500185  7 H  pz         
    41      0.450036  3 C  d  1              11      0.430621  1 C  d -1       
    67      0.394221  8 H  pz                47      0.381391  4 H  pz         
    51     -0.303989  5 H  py                56      0.303989  6 H  py         

 Vector   60  Occ=0.000000D+00  E= 1.950733D+00  Symmetry=a'
              MO Center=  1.3D-01, -7.6D-01, -8.3D-15, r^2= 3.3D+00
   Bfn.  Coefficient  Atom+Function         Bfn.  Coefficient  Atom+Function  
  ----- ------------  ---------------      ----- ------------  ---------------
    31      1.460033  3 C  s                 17     -1.226572  2 C  s          
    21     -0.875010  2 C  px                36     -0.794639  3 C  py         
     3      0.579812  1 C  s                 14     -0.530376  1 C  d  2       
    12     -0.504892  1 C  d  0              10     -0.492357  1 C  d -2       
    46      0.463566  4 H  py                51      0.457166  5 H  py         

 Vector   61  Occ=0.000000D+00  E= 1.967969D+00  Symmetry=a"
              MO Center=  1.1D-01, -2.3D-01,  2.3D-14, r^2= 3.0D+00
   Bfn.  Coefficient  Atom+Function         Bfn.  Coefficient  Atom+Function  
  ----- ------------  ---------------      ----- ------------  ---------------
    25      0.915134  2 C  d -1               9      0.789965  1 C  pz         
    41     -0.653932  3 C  d  1              49     -0.515483  5 H  s          
    54      0.515483  6 H  s                 39      0.470911  3 C  d -1       
    47     -0.455895  4 H  pz                 6      0.426133  1 C  pz         
    67     -0.422812  8 H  pz                50      0.417555  5 H  px         

 Vector   62  Occ=0.000000D+00  E= 1.982045D+00  Symmetry=a'
              MO Center= -1.2D-01, -7.0D-01, -4.3D-14, r^2= 3.0D+00
   Bfn.  Coefficient  Atom+Function         Bfn.  Coefficient  Atom+Function  
  ----- ------------  ---------------      ----- ------------  ---------------
     3      2.066397  1 C  s                 22      1.666473  2 C  py         
    17     -1.305703  2 C  s                  7     -1.167518  1 C  px         
    31     -0.709564  3 C  s                 35      0.693251  3 C  px         
    44     -0.629158  4 H  s                 61     -0.592557  7 H  py         
    14     -0.444034  1 C  d  2              50      0.440329  5 H  px         

 Vector   63  Occ=0.000000D+00  E= 2.137925D+00  Symmetry=a'
              MO Center= -8.2D-02,  7.7D-01, -4.6D-15, r^2= 2.8D+00
   Bfn.  Coefficient  Atom+Function         Bfn.  Coefficient  Atom+Function  
  ----- ------------  ---------------      ----- ------------  ---------------
    17      0.922341  2 C  s                 31     -0.836849  3 C  s          
    32      0.782779  3 C  px                35      0.764103  3 C  px         
    65      0.711231  8 H  px                60     -0.682092  7 H  px         
    16      0.625041  2 C  s                 69      0.564963  9 H  s          
    22      0.541467  2 C  py                24     -0.485123  2 C  d -2       

 Vector   64  Occ=0.000000D+00  E= 2.201397D+00  Symmetry=a"
              MO Center= -4.9D-03, -8.7D-01, -1.6D-14, r^2= 2.5D+00
   Bfn.  Coefficient  Atom+Function         Bfn.  Coefficient  Atom+Function  
  ----- ------------  ---------------      ----- ------------  ---------------
    11      1.120399  1 C  d -1              47      0.687871  4 H  pz         
    27      0.600810  2 C  d  1              51     -0.539236  5 H  py         
    56      0.539236  6 H  py                13     -0.452548  1 C  d  1       
    62     -0.398458  7 H  pz                41     -0.331441  3 C  d  1       
    25      0.324117  2 C  d -1              72      0.236969  9 H  pz         

 Vector   65  Occ=0.000000D+00  E= 2.207164D+00  Symmetry=a'
              MO Center=  4.6D-01,  1.2D+00, -7.7D-15, r^2= 2.4D+00
   Bfn.  Coefficient  Atom+Function         Bfn.  Coefficient  Atom+Function  
  ----- ------------  ---------------      ----- ------------  ---------------
    17      1.858838  2 C  s                 70     -0.799815  9 H  px         
    36      0.765583  3 C  py                65      0.736461  8 H  px         
    30      0.661896  3 C  s                 38      0.649544  3 C  d -2       
    16     -0.632946  2 C  s                 66     -0.591567  8 H  py         
    35      0.555088  3 C  px                21      0.537741  2 C  px         

 Vector   66  Occ=0.000000D+00  E= 2.338606D+00  Symmetry=a'
              MO Center= -2.0D-01, -1.2D-01,  1.9D-14, r^2= 3.2D+00
   Bfn.  Coefficient  Atom+Function         Bfn.  Coefficient  Atom+Function  
  ----- ------------  ---------------      ----- ------------  ---------------
    17      0.881272  2 C  s                 60     -0.823069  7 H  px         
     2      0.816407  1 C  s                 58     -0.750281  7 H  s          
    33      0.652164  3 C  py                24      0.625705  2 C  d -2       
    16      0.600359  2 C  s                 65     -0.565239  8 H  px         
    35     -0.536934  3 C  px                38     -0.515909  3 C  d -2       

 Vector   67  Occ=0.000000D+00  E= 2.356975D+00  Symmetry=a'
              MO Center=  1.8D-01, -1.2D+00,  3.7D-13, r^2= 2.3D+00
   Bfn.  Coefficient  Atom+Function         Bfn.  Coefficient  Atom+Function  
  ----- ------------  ---------------      ----- ------------  ---------------
     3      1.310492  1 C  s                  2      1.003818  1 C  s          
    17     -0.989928  2 C  s                 31      0.865521  3 C  s          
    52      0.805125  5 H  pz                57     -0.805125  6 H  pz         
    14      0.762877  1 C  d  2              48     -0.730928  5 H  s          
    53     -0.730928  6 H  s                 46     -0.649729  4 H  py         

 Vector   68  Occ=0.000000D+00  E= 2.384849D+00  Symmetry=a'
              MO Center= -9.9D-02, -9.0D-01,  3.4D-15, r^2= 2.6D+00
   Bfn.  Coefficient  Atom+Function         Bfn.  Coefficient  Atom+Function  
  ----- ------------  ---------------      ----- ------------  ---------------
    17      1.621855  2 C  s                 31     -1.542481  3 C  s          
    43      1.112344  4 H  s                 12      1.075346  1 C  d  0       
     4      1.016972  1 C  px                21      0.999292  2 C  px         
    46      0.877564  4 H  py                 7      0.850819  1 C  px         
    28     -0.643138  2 C  d  2              44      0.641705  4 H  s          

 Vector   69  Occ=0.000000D+00  E= 2.419609D+00  Symmetry=a"
              MO Center=  3.8D-01, -1.2D+00, -3.3D-13, r^2= 1.7D+00
   Bfn.  Coefficient  Atom+Function         Bfn.  Coefficient  Atom+Function  
  ----- ------------  ---------------      ----- ------------  ---------------
    13      1.438567  1 C  d  1              48      1.297816  5 H  s          
    53     -1.297816  6 H  s                  6     -1.267456  1 C  pz         
     9     -1.103861  1 C  pz                52     -0.956111  5 H  pz         
    57     -0.956111  6 H  pz                49      0.642706  5 H  s          
    54     -0.642706  6 H  s                 50     -0.627240  5 H  px         

 Vector   70  Occ=0.000000D+00  E= 2.443600D+00  Symmetry=a'
              MO Center= -1.3D-01,  2.6D-01, -3.4D-14, r^2= 3.7D+00
   Bfn.  Coefficient  Atom+Function         Bfn.  Coefficient  Atom+Function  
  ----- ------------  ---------------      ----- ------------  ---------------
    31      1.457227  3 C  s                 17     -1.255736  2 C  s          
    68     -1.145946  9 H  s                 71      1.045577  9 H  py         
    43      0.955770  4 H  s                 10     -0.857333  1 C  d -2       
    21     -0.835779  2 C  px                45      0.751760  4 H  px         
    30      0.746143  3 C  s                  8      0.728487  1 C  py         

 Vector   71  Occ=0.000000D+00  E= 2.647978D+00  Symmetry=a'
              MO Center=  3.9D-02,  8.6D-01,  3.6D-15, r^2= 2.5D+00
   Bfn.  Coefficient  Atom+Function         Bfn.  Coefficient  Atom+Function  
  ----- ------------  ---------------      ----- ------------  ---------------
    31      3.076402  3 C  s                 17     -2.783399  2 C  s          
    63     -1.479911  8 H  s                 42      1.147947  3 C  d  2       
    65      1.112752  8 H  px                24      0.899480  2 C  d -2       
    22     -0.763082  2 C  py                32      0.722576  3 C  px         
    58      0.689335  7 H  s                 40     -0.661392  3 C  d  0       

 Vector   72  Occ=0.000000D+00  E= 2.950911D+00  Symmetry=a'
              MO Center= -1.0D-01,  5.0D-01, -7.9D-16, r^2= 2.3D+00
   Bfn.  Coefficient  Atom+Function         Bfn.  Coefficient  Atom+Function  
  ----- ------------  ---------------      ----- ------------  ---------------
    28      1.739553  2 C  d  2              42      1.489237  3 C  d  2       
    58     -1.382458  7 H  s                 68      1.263787  9 H  s          
    38      1.049712  3 C  d -2              60     -0.890261  7 H  px         
    63     -0.883245  8 H  s                 17      0.774323  2 C  s          
    10     -0.711821  1 C  d -2              71     -0.596252  9 H  py         


 center of mass
 --------------
 x =  -0.02017797 y =   0.04691490 z =   0.00000000

 moments of inertia (a.u.)
 ------------------
         190.841876716380           0.000000000117           0.000000000000
           0.000000000117          39.610779569600           0.000000000000
           0.000000000000           0.000000000000         218.969328834500

     Multipole analysis of the density
     ---------------------------------

     L   x y z        total         alpha         beta         nuclear
     -   - - -        -----         -----         ----         -------
     0   0 0 0     -0.000000    -12.000000    -12.000000     24.000000

     1   1 0 0     -0.004065     -0.002033     -0.002033      0.000000
     1   0 1 0     -0.215736     -0.107868     -0.107868     -0.000000
     1   0 0 1     -0.000000     -0.000000     -0.000000      0.000000

     2   2 0 0    -13.892564    -20.577275    -20.577275     27.261986
     2   1 1 0      0.050124      0.186486      0.186486     -0.322849
     2   1 0 1     -0.000000     -0.000000     -0.000000      0.000000
     2   0 2 0    -14.252693    -66.102549    -66.102549    117.952404
     2   0 1 1     -0.000000     -0.000000     -0.000000      0.000000
     2   0 0 2    -15.819141    -10.758113    -10.758113      5.697084


            General Information
            -------------------
          SCF calculation type: DFT
          Wavefunction type:  closed shell.
          No. of atoms     :     9
          No. of electrons :    24
           Alpha electrons :    12
            Beta electrons :    12
          Charge           :     0
          Spin multiplicity:     1
          Use of symmetry is: on ; symmetry adaption is: on 
          Maximum number of iterations:  50
          This is a Direct SCF calculation.
          AO basis - number of functions:    72
                     number of shells:    36
          Convergence on energy requested:  1.00D-06
          Convergence on density requested:  1.00D-05
          Convergence on gradient requested:  5.00D-04

              XC Information
              --------------
          PerdewBurkeErnzerhof Exchange Functional  1.000          
            Perdew 1991 LDA Correlation Functional  1.000 local    
           PerdewBurkeErnz. Correlation Functional  1.000 non-local

             Grid Information
             ----------------
          Grid used for XC integration:  medium    
          Radial quadrature: Mura-Knowles        
          Angular quadrature: Lebedev. 
          Tag              B.-S. Rad. Rad. Pts. Rad. Cut. Ang. Pts.
          ---              ---------- --------- --------- ---------
          C                   0.70       49          10.0       434
          H                   0.35       45          11.0       434
          Grid pruning is: on 
          Number of quadrature shells:   372
          Spatial weights used:  Erf1

          Convergence Information
          -----------------------
          Convergence aids based upon iterative change in 
          total energy or number of iterations. 
          Levelshifting, if invoked, occurs when the 
          HOMO/LUMO gap drops below (HL_TOL):  1.00D-02
          DIIS, if invoked, will attempt to extrapolate 
          using up to (NFOCK): 10 stored Fock matrices.

                    Damping( 0%)  Levelshifting(0.5)       DIIS
                  --------------- ------------------- ---------------
          dE  on:    start            ASAP                start   
          dE off:    2 iters         50 iters            50 iters 


      Screening Tolerance Information
      -------------------------------
          Density screening/tol_rho:  1.00D-10
          AO Gaussian exp screening on grid/accAOfunc:  14
          CD Gaussian exp screening on grid/accCDfunc:  20
          XC Gaussian exp screening on grid/accXCfunc:  20
[...]
          Density screening/tol_rho:  1.00D-10
          AO Gaussian exp screening on grid/accAOfunc:  14
          CD Gaussian exp screening on grid/accCDfunc:  20
          XC Gaussian exp screening on grid/accXCfunc:  20
          Schwarz screening/accCoul:  1.00D-08

  texas integral default override: limxmem =             50000000
  texas integral default override: limxmem =             50000000


                            NWChem DFT Gradient Module
                            --------------------------



  charge          =   0.00
  wavefunction    = closed shell

  Using symmetry
  texas integral default override: limxmem =             50000000
  texas integral default override: limxmem =             50000000


                         DFT ENERGY GRADIENTS

    atom               coordinates                        gradient
                 x          y          z           x          y          z
   1 C       0.302478  -2.345509   0.000000   -0.000008   0.000011   0.000000
   2 C      -0.873587   0.255923   0.000000   -0.000014  -0.000058   0.000000
   3 C       0.415826   2.449480   0.000000    0.000025   0.000016   0.000000
   4 H      -1.147778  -3.852067   0.000000   -0.000004   0.000012   0.000000
   5 H       1.521447  -2.639337   1.682921   -0.000012  -0.000002  -0.000007
   6 H       1.521447  -2.639337  -1.682921   -0.000012  -0.000002   0.000007
   7 H      -2.960608   0.339659   0.000000    0.000001   0.000010   0.000000
   8 H       2.501320   2.491551   0.000000    0.000021  -0.000004   0.000000
   9 H      -0.567951   4.282813   0.000000    0.000003   0.000017   0.000000

                 ----------------------------------------
                 |  Time  |  1-e(secs)   |  2-e(secs)   |
                 ----------------------------------------
                 |  CPU   |       0.01   |       0.28   |
                 ----------------------------------------
                 |  WALL  |       0.01   |       0.28   |
                 ----------------------------------------
  no constraints, skipping    0.0000000000000000     

  Step       Energy      Delta E   Gmax     Grms     Xrms     Xmax   Walltime
  ---- ---------------- -------- -------- -------- -------- -------- --------
@    6    -117.73380987  1.4D-07  0.00004  0.00001  0.00003  0.00008    339.7
                                     ok       ok       ok       ok  



                                Z-matrix (autoz)
                                -------- 

 Units are Angstrom for bonds and degrees for angles

      Type          Name      I     J     K     L     M      Value     Gradient
      ----------- --------  ----- ----- ----- ----- ----- ---------- ----------
    1 Stretch                  1     2                       1.51076   -0.00003
    2 Stretch                  1     4                       1.10660   -0.00001
    3 Stretch                  1     5                       1.11057   -0.00001
    4 Stretch                  1     6                       1.11057   -0.00001
    5 Stretch                  2     3                       1.34647    0.00004
    6 Stretch                  2     7                       1.10529    0.00000
    7 Stretch                  3     8                       1.10382    0.00001
    8 Stretch                  3     9                       1.10101    0.00002
    9 Bend                     1     2     3               125.22528   -0.00000
   10 Bend                     1     2     7               116.62456    0.00000
   11 Bend                     2     1     4               111.76393   -0.00000
   12 Bend                     2     1     5               111.52103   -0.00000
   13 Bend                     2     1     6               111.52103   -0.00000
   14 Bend                     2     3     8               121.60346    0.00000
   15 Bend                     2     3     9               121.33396   -0.00000
   16 Bend                     3     2     7               118.15016   -0.00000
   17 Bend                     4     1     5               107.57460    0.00000
   18 Bend                     4     1     6               107.57460    0.00000
   19 Bend                     5     1     6               106.62315    0.00000
   20 Bend                     8     3     9               117.06258   -0.00000
   21 Torsion                  1     2     3     8           0.00000   -0.00000
   22 Torsion                  1     2     3     9         180.00000   -0.00000
   23 Torsion                  3     2     1     4         180.00000   -0.00000
   24 Torsion                  3     2     1     5          59.54097    0.00000
   25 Torsion                  3     2     1     6         -59.54097   -0.00000
   26 Torsion                  4     1     2     7           0.00000    0.00000
   27 Torsion                  5     1     2     7        -120.45903    0.00000
   28 Torsion                  6     1     2     7         120.45903   -0.00000
   29 Torsion                  7     2     3     8         180.00000    0.00000
   30 Torsion                  7     2     3     9           0.00000   -0.00000


      ----------------------
      Optimization converged
      ----------------------


  Step       Energy      Delta E   Gmax     Grms     Xrms     Xmax   Walltime
  ---- ---------------- -------- -------- -------- -------- -------- --------
@    6    -117.73380987  1.4D-07  0.00004  0.00001  0.00003  0.00008    339.7
                                     ok       ok       ok       ok  



                                Z-matrix (autoz)
                                -------- 

 Units are Angstrom for bonds and degrees for angles

      Type          Name      I     J     K     L     M      Value     Gradient
      ----------- --------  ----- ----- ----- ----- ----- ---------- ----------
    1 Stretch                  1     2                       1.51076   -0.00003
    2 Stretch                  1     4                       1.10660   -0.00001
    3 Stretch                  1     5                       1.11057   -0.00001
    4 Stretch                  1     6                       1.11057   -0.00001
    5 Stretch                  2     3                       1.34647    0.00004
    6 Stretch                  2     7                       1.10529    0.00000
    7 Stretch                  3     8                       1.10382    0.00001
    8 Stretch                  3     9                       1.10101    0.00002
    9 Bend                     1     2     3               125.22528   -0.00000
   10 Bend                     1     2     7               116.62456    0.00000
   11 Bend                     2     1     4               111.76393   -0.00000
   12 Bend                     2     1     5               111.52103   -0.00000
   13 Bend                     2     1     6               111.52103   -0.00000
   14 Bend                     2     3     8               121.60346    0.00000
   15 Bend                     2     3     9               121.33396   -0.00000
   16 Bend                     3     2     7               118.15016   -0.00000
   17 Bend                     4     1     5               107.57460    0.00000
   18 Bend                     4     1     6               107.57460    0.00000
   19 Bend                     5     1     6               106.62315    0.00000
   20 Bend                     8     3     9               117.06258   -0.00000
   21 Torsion                  1     2     3     8           0.00000   -0.00000
   22 Torsion                  1     2     3     9         180.00000   -0.00000
   23 Torsion                  3     2     1     4         180.00000   -0.00000
   24 Torsion                  3     2     1     5          59.54097    0.00000
   25 Torsion                  3     2     1     6         -59.54097   -0.00000
   26 Torsion                  4     1     2     7           0.00000    0.00000
   27 Torsion                  5     1     2     7        -120.45903    0.00000
   28 Torsion                  6     1     2     7         120.45903   -0.00000
   29 Torsion                  7     2     3     8         180.00000    0.00000
   30 Torsion                  7     2     3     9           0.00000   -0.00000



                         Geometry "geometry" -> "geometry"
                         ---------------------------------

 Output coordinates in angstroms (scale by  1.889725989 to convert to a.u.)

  No.       Tag          Charge          X              Y              Z
 ---- ---------------- ---------- -------------- -------------- --------------
    1 C                    6.0000     0.16006427    -1.24118992     0.00000000
    2 C                    6.0000    -0.46228215     0.13542848     0.00000000
    3 C                    6.0000     0.22004584     1.29620932     0.00000000
    4 H                    1.0000    -0.60737810    -2.03842612     0.00000000
    5 H                    1.0000     0.80511491    -1.39667697     0.89056367
    6 H                    1.0000     0.80511491    -1.39667697    -0.89056367
    7 H                    1.0000    -1.56668622     0.17974004     0.00000000
    8 H                    1.0000     1.32364174     1.31847226     0.00000000
    9 H                    1.0000    -0.30054649     2.26636746     0.00000000

      Atomic Mass 
      ----------- 

      C                 12.000000
      H                  1.007825


 Effective nuclear repulsion energy (a.u.)      69.9180468147

            Nuclear Dipole moment (a.u.) 
            ----------------------------
        X                 Y               Z
 ---------------- ---------------- ----------------
    -0.0638189379     0.1426496938     0.0000000000

      Symmetry information
      --------------------

 Group name             Cs        
 Group number              2
 Group order               2
 No. of unique centers     8

      Symmetry unique atoms

     1    2    3    4    5    7    8    9


                Final and change from initial internal coordinates
                --------------------------------------------------



                                Z-matrix (autoz)
                                -------- 

 Units are Angstrom for bonds and degrees for angles

      Type          Name      I     J     K     L     M      Value       Change
      ----------- --------  ----- ----- ----- ----- ----- ---------- ----------
    1 Stretch                  1     2                       1.51076    0.01819
    2 Stretch                  1     4                       1.10660    0.01206
    3 Stretch                  1     5                       1.11057    0.01626
    4 Stretch                  1     6                       1.11057    0.01626
    5 Stretch                  2     3                       1.34647    0.00795
    6 Stretch                  2     7                       1.10529    0.01732
    7 Stretch                  3     8                       1.10382    0.01779
    8 Stretch                  3     9                       1.10101    0.01601
    9 Bend                     1     2     3               125.22528    2.02100
   10 Bend                     1     2     7               116.62456   -0.78518
   11 Bend                     2     1     4               111.76393    1.79699
   12 Bend                     2     1     5               111.52103    0.65731
   13 Bend                     2     1     6               111.52103    0.65731
   14 Bend                     2     3     8               121.60346    0.16028
   15 Bend                     2     3     9               121.33396    0.42519
   16 Bend                     3     2     7               118.15016   -1.23583
   17 Bend                     4     1     5               107.57460   -0.24780
   18 Bend                     4     1     6               107.57460   -0.24780
   19 Bend                     5     1     6               106.62315   -2.77946
   20 Bend                     8     3     9               117.06258   -0.58547
   21 Torsion                  1     2     3     8           0.00000    0.00000
   22 Torsion                  1     2     3     9         180.00000    0.00000
   23 Torsion                  3     2     1     4         180.00000    0.00000
   24 Torsion                  3     2     1     5          59.54097   -1.31765
   25 Torsion                  3     2     1     6         -59.54097    1.31765
   26 Torsion                  4     1     2     7           0.00000    0.00000
   27 Torsion                  5     1     2     7        -120.45903   -1.31765
   28 Torsion                  6     1     2     7         120.45903    1.31765
   29 Torsion                  7     2     3     8         180.00000    0.00000
   30 Torsion                  7     2     3     9           0.00000    0.00000

 ==============================================================================
                                internuclear distances
 ------------------------------------------------------------------------------
       center one      |      center two      | atomic units |  angstroms
 ------------------------------------------------------------------------------
    2 C                |   1 C                |     2.85492  |     1.51076
    3 C                |   2 C                |     2.54446  |     1.34647
    4 H                |   1 C                |     2.09116  |     1.10660
    5 H                |   1 C                |     2.09868  |     1.11057
    6 H                |   1 C                |     2.09868  |     1.11057
    7 H                |   2 C                |     2.08870  |     1.10529
    8 H                |   3 C                |     2.08592  |     1.10382
    9 H                |   3 C                |     2.08061  |     1.10101
 ------------------------------------------------------------------------------
                         number of included internuclear distances:          8
 ==============================================================================



 ==============================================================================
                                 internuclear angles
 ------------------------------------------------------------------------------
        center 1       |       center 2       |       center 3       |  degrees
 ------------------------------------------------------------------------------
    2 C                |   1 C                |   4 H                |   111.76
    2 C                |   1 C                |   5 H                |   111.52
    2 C                |   1 C                |   6 H                |   111.52
    4 H                |   1 C                |   5 H                |   107.57
    4 H                |   1 C                |   6 H                |   107.57
    5 H                |   1 C                |   6 H                |   106.62
    1 C                |   2 C                |   3 C                |   125.23
    1 C                |   2 C                |   7 H                |   116.62
    3 C                |   2 C                |   7 H                |   118.15
    2 C                |   3 C                |   8 H                |   121.60
    2 C                |   3 C                |   9 H                |   121.33
    8 H                |   3 C                |   9 H                |   117.06
 ------------------------------------------------------------------------------
                            number of included internuclear angles:         12
 ==============================================================================




 Task  times  cpu:      248.1s     wall:      339.0s


                                NWChem Input Module
                                -------------------


 Summary of allocated global arrays
-----------------------------------
  No active global arrays


MA_summarize_allocated_blocks: starting scan ...
MA_summarize_allocated_blocks: scan completed: 0 heap blocks, 0 stack blocks
MA usage statistics:

	allocation statistics:
					      heap	     stack
					      ----	     -----
	current number of blocks	         0	         0
	maximum number of blocks	        26	        57
	current total bytes		         0	         0
	maximum total bytes		    534160	  26220104
	maximum total K-bytes		       535	     26221
	maximum total M-bytes		         1	        27


                                     CITATION
                                     --------
                Please cite the following reference when publishing
                           results obtained with NWChem:

          E. Apra, E. J. Bylaska, W. A. de Jong, N. Govind, K. Kowalski,
       T. P. Straatsma, M. Valiev, H. J. J. van Dam, Y. Alexeev, J. Anchell,
       V. Anisimov, F. W. Aquino, R. Atta-Fynn, J. Autschbach, N. P. Bauman,
     J. C. Becca, D. E. Bernholdt, K. Bhaskaran-Nair, S. Bogatko, P. Borowski,
         J. Boschen, J. Brabec, A. Bruner, E. Cauet, Y. Chen, G. N. Chuev,
      C. J. Cramer, J. Daily, M. J. O. Deegan, T. H. Dunning Jr., M. Dupuis,
   K. G. Dyall, G. I. Fann, S. A. Fischer, A. Fonari, H. Fruchtl, L. Gagliardi,
      J. Garza, N. Gawande, S. Ghosh, K. Glaesemann, A. W. Gotz, J. Hammond,
       V. Helms, E. D. Hermes, K. Hirao, S. Hirata, M. Jacquelin, L. Jensen,
   B. G. Johnson, H. Jonsson, R. A. Kendall, M. Klemm, R. Kobayashi, V. Konkov,
      S. Krishnamoorthy, M. Krishnan, Z. Lin, R. D. Lins, R. J. Littlefield,
      A. J. Logsdail, K. Lopata, W. Ma, A. V. Marenich, J. Martin del Campo,
   D. Mejia-Rodriguez, J. E. Moore, J. M. Mullin, T. Nakajima, D. R. Nascimento,
    J. A. Nichols, P. J. Nichols, J. Nieplocha, A. Otero-de-la-Roza, B. Palmer,
    A. Panyala, T. Pirojsirikul, B. Peng, R. Peverati, J. Pittner, L. Pollack,
   R. M. Richard, P. Sadayappan, G. C. Schatz, W. A. Shelton, D. W. Silverstein,
   D. M. A. Smith, T. A. Soares, D. Song, M. Swart, H. L. Taylor, G. S. Thomas,
            V. Tipparaju, D. G. Truhlar, K. Tsemekhman, T. Van Voorhis,
      A. Vazquez-Mayagoitia, P. Verma, O. Villa, A. Vishnu, K. D. Vogiatzis,
        D. Wang, J. H. Weare, M. J. Williamson, T. L. Windus, K. Wolinski,
        A. T. Wong, Q. Wu, C. Yang, Q. Yu, M. Zacharias, Z. Zhang, Y. Zhao,
                                and R. J. Harrison
                        "NWChem: Past, present, and future
                         J. Chem. Phys. 152, 184102 (2020)
                               doi:10.1063/5.0004997

                                      AUTHORS
                                      -------
  E. Apra, E. J. Bylaska, N. Govind, K. Kowalski, M. Valiev, D. Mejia-Rodriguez,
       A. Kunitsa, N. P. Bauman, A. Panyala, W. A. de Jong, T. P. Straatsma,
        H. J. J. van Dam, D. Wang, T. L. Windus, J. Hammond, J. Autschbach,
    K. Bhaskaran-Nair, J. Brabec, K. Lopata, S. A. Fischer, S. Krishnamoorthy,
     M. Jacquelin, W. Ma, M. Klemm, O. Villa, Y. Chen, V. Anisimov, F. Aquino,
    S. Hirata, M. T. Hackler, Eric Hermes, L. Jensen, J. E. Moore, J. C. Becca,
      V. Konjkov, T. Risthaus, M. Malagoli, A. Marenich, A. Otero-de-la-Roza,
        J. Mullin, P. Nichols, R. Peverati, J. Pittner, Y. Zhao, P.-D. Fan,
        A. Fonari, M. J. Williamson, R. J. Harrison, J. R. Rehr, M. Dupuis,
     D. Silverstein, D. M. A. Smith, J. Nieplocha, V. Tipparaju, M. Krishnan,
     B. E. Van Kuiken, A. Vazquez-Mayagoitia, M. Swart, Q. Wu, T. Van Voorhis,
     A. A. Auer, M. Nooijen, L. D. Crosby, E. Brown, G. Cisneros, G. I. Fann,
   H. Fruchtl, J. Garza, K. Hirao, R. A. Kendall, J. A. Nichols, K. Tsemekhman,
    K. Wolinski, J. Anchell, D. E. Bernholdt, P. Borowski, T. Clark, D. Clerc,
   H. Dachsel, M. J. O. Deegan, K. Dyall, D. Elwood, E. Glendening, M. Gutowski,
   A. C. Hess, J. Jaffe, B. G. Johnson, J. Ju, R. Kobayashi, R. Kutteh, Z. Lin,
   R. Littlefield, X. Long, B. Meng, T. Nakajima, S. Niu, L. Pollack, M. Rosing,
   K. Glaesemann, G. Sandrone, M. Stave, H. Taylor, G. Thomas, J. H. van Lenthe,
                               A. T. Wong, Z. Zhang.

 Total times  cpu:      248.7s     wall:      339.8s
