 argument  1 = /home/hvandam/nwchem-1-srp-hpc/QA/tests/ZSM-5/nwc/propene-dft-pbe-thermo.nw



============================== echo of input deck ==============================
echo
start propene-dat

memory heap 100 mb stack 500 mb global 1024 mb

geometry
  #load ../xyz/propene.xyz
  load propene.xyz
end

basis "cc-pvdz" spherical
  * library cc-pvdz
end
basis "cc-pvtz" spherical
  * library cc-pvtz
end
basis "cc-pvqz" spherical
  * library cc-pvqz
end
basis "cc-pv5z" spherical
  * library cc-pv5z
end
basis "cc-pv6z" spherical
  * library cc-pv6z
end

dft
  direct
  # select PBE functional following https://doi.org/10.1002/aic.15517
  xc xpbe96 cpbe96
  convergence energy 1e-8 density 1e-7 gradient 1e-6
end

set int:txs:limxmem              50000000

set "ao basis" "cc-pvdz"
task dft optimize
task dft frequencies
vib
  reuse
  temp 2 398.15 498.15
end
task dft frequencies

#set "ao basis" "cc-pvtz"
#task dft optimize

#set "ao basis" "cc-pvqz"
#task dft optimize

#set "ao basis" "cc-pv5z"
#task dft optimize

#set "ao basis" "cc-pv6z"
#task dft optimize
================================================================================


                                         
                                         


             Northwest Computational Chemistry Package (NWChem) 7.0.1
             --------------------------------------------------------


                    Environmental Molecular Sciences Laboratory
                       Pacific Northwest National Laboratory
                                Richland, WA 99352

                              Copyright (c) 1994-2020
                       Pacific Northwest National Laboratory
                            Battelle Memorial Institute

             NWChem is an open-source computational chemistry package
                        distributed under the terms of the
                      Educational Community License (ECL) 2.0
             A copy of the license is included with this distribution
                              in the LICENSE.TXT file

                                  ACKNOWLEDGMENT
                                  --------------

            This software and its documentation were developed at the
            EMSL at Pacific Northwest National Laboratory, a multiprogram
            national laboratory, operated for the U.S. Department of Energy
            by Battelle under Contract Number DE-AC05-76RL01830. Support
            for this work was provided by the Department of Energy Office
            of Biological and Environmental Research, Office of Basic
            Energy Sciences, and the Office of Advanced Scientific Computing.


           Job information
           ---------------

    hostname        = node004
    program         = /home/hvandam/nwchem-1-srp-hpc/bin/LINUX64/nwchem
    date            = Wed Sep  7 09:44:39 2022

    compiled        = Fri_Jul_08_12:50:28_2022
    source          = /home/hvandam/nwchem-1-srp-hpc
    nwchem branch   = 7.0.0
    nwchem revision = nwchem_on_git-4025-gba861c8c44
    ga revision     = 5.8.1
    use scalapack   = F
    input           = /home/hvandam/nwchem-1-srp-hpc/QA/tests/ZSM-5/nwc/propene-dft-pbe-thermo.nw
    prefix          = propene-dat.
    data base       = ./propene-dat.db
    status          = startup
    nproc           =       16
    time left       =     -1s



           Memory information
           ------------------

    heap     =   13107198 doubles =    100.0 Mbytes
    stack    =   65535995 doubles =    500.0 Mbytes
    global   =  134217728 doubles =   1024.0 Mbytes (distinct from heap & stack)
    total    =  212860921 doubles =   1624.0 Mbytes
    verify   = yes
    hardfail = no 


           Directory information
           ---------------------

  0 permanent = .
  0 scratch   = .




                                NWChem Input Module
                                -------------------



 Scaling coordinates for geometry "geometry" by  1.889725989
 (inverse scale =  0.529177249)

 CS  symmetry detected

          ------
          auto-z
          ------
  no constraints, skipping    0.0000000000000000     
  no constraints, skipping    0.0000000000000000     


                             Geometry "geometry" -> ""
                             -------------------------

 Output coordinates in angstroms (scale by  1.889725989 to convert to a.u.)

  No.       Tag          Charge          X              Y              Z
 ---- ---------------- ---------- -------------- -------------- --------------
    1 C                    6.0000     0.17260109    -1.22074068     0.00000000
    2 C                    6.0000    -0.47115414     0.12585946     0.00000000
    3 C                    6.0000     0.22313530     1.27023170     0.00000000
    4 H                    1.0000    -0.59433050    -2.00165341     0.00000000
    5 H                    1.0000     0.78995232    -1.35759185     0.89312548
    6 H                    1.0000     0.78995232    -1.35759185    -0.89312548
    7 H                    1.0000    -1.55855812     0.16115642     0.00000000
    8 H                    1.0000     1.30915519     1.27398534     0.00000000
    9 H                    1.0000    -0.28366476     2.22959244     0.00000000

      Atomic Mass 
      ----------- 

      C                 12.000000
      H                  1.007825


 Effective nuclear repulsion energy (a.u.)      70.8372708184

            Nuclear Dipole moment (a.u.) 
            ----------------------------
        X                 Y               Z
 ---------------- ---------------- ----------------
     0.0000000000    -0.0000000000     0.0000000000

      Symmetry information
      --------------------

 Group name             Cs        
 Group number              2
 Group order               2
 No. of unique centers     8

      Symmetry unique atoms

     1    2    3    4    5    7    8    9



                                Z-matrix (autoz)
                                -------- 

 Units are Angstrom for bonds and degrees for angles

      Type          Name      I     J     K     L     M      Value
      ----------- --------  ----- ----- ----- ----- ----- ----------
    1 Stretch                  1     2                       1.49257
    2 Stretch                  1     4                       1.09454
    3 Stretch                  1     5                       1.09431
    4 Stretch                  1     6                       1.09431
    5 Stretch                  2     3                       1.33852
    6 Stretch                  2     7                       1.08798
    7 Stretch                  3     8                       1.08603
    8 Stretch                  3     9                       1.08500
    9 Bend                     1     2     3               123.20427
   10 Bend                     1     2     7               117.40974
   11 Bend                     2     1     4               109.96694
   12 Bend                     2     1     5               110.86372
   13 Bend                     2     1     6               110.86372
   14 Bend                     2     3     8               121.44318
   15 Bend                     2     3     9               120.90877
   16 Bend                     3     2     7               119.38599
   17 Bend                     4     1     5               107.82240
   18 Bend                     4     1     6               107.82240
   19 Bend                     5     1     6               109.40261
   20 Bend                     8     3     9               117.64805
   21 Torsion                  1     2     3     8           0.00000
   22 Torsion                  1     2     3     9         180.00000
   23 Torsion                  3     2     1     4         180.00000
   24 Torsion                  3     2     1     5          60.85863
   25 Torsion                  3     2     1     6         -60.85863
   26 Torsion                  4     1     2     7           0.00000
   27 Torsion                  5     1     2     7        -119.14137
   28 Torsion                  6     1     2     7         119.14137
   29 Torsion                  7     2     3     8         180.00000
   30 Torsion                  7     2     3     9           0.00000


            XYZ format geometry
            -------------------
     9
 geometry
 C                     0.17260109    -1.22074068     0.00000000
 C                    -0.47115414     0.12585946     0.00000000
 C                     0.22313530     1.27023170     0.00000000
 H                    -0.59433050    -2.00165341     0.00000000
 H                     0.78995232    -1.35759185     0.89312548
 H                     0.78995232    -1.35759185    -0.89312548
 H                    -1.55855812     0.16115642     0.00000000
 H                     1.30915519     1.27398534     0.00000000
 H                    -0.28366476     2.22959244     0.00000000

 ==============================================================================
                                internuclear distances
 ------------------------------------------------------------------------------
       center one      |      center two      | atomic units |  angstroms
 ------------------------------------------------------------------------------
    2 C                |   1 C                |     2.82054  |     1.49257
    3 C                |   2 C                |     2.52943  |     1.33852
    4 H                |   1 C                |     2.06837  |     1.09454
    5 H                |   1 C                |     2.06795  |     1.09431
    6 H                |   1 C                |     2.06795  |     1.09431
    7 H                |   2 C                |     2.05598  |     1.08798
    8 H                |   3 C                |     2.05229  |     1.08603
    9 H                |   3 C                |     2.05035  |     1.08500
 ------------------------------------------------------------------------------
                         number of included internuclear distances:          8
 ==============================================================================



 ==============================================================================
                                 internuclear angles
 ------------------------------------------------------------------------------
        center 1       |       center 2       |       center 3       |  degrees
 ------------------------------------------------------------------------------
    2 C                |   1 C                |   4 H                |   109.97
    2 C                |   1 C                |   5 H                |   110.86
    2 C                |   1 C                |   6 H                |   110.86
    4 H                |   1 C                |   5 H                |   107.82
    4 H                |   1 C                |   6 H                |   107.82
    5 H                |   1 C                |   6 H                |   109.40
    1 C                |   2 C                |   3 C                |   123.20
    1 C                |   2 C                |   7 H                |   117.41
    3 C                |   2 C                |   7 H                |   119.39
    2 C                |   3 C                |   8 H                |   121.44
    2 C                |   3 C                |   9 H                |   120.91
    8 H                |   3 C                |   9 H                |   117.65
 ------------------------------------------------------------------------------
                            number of included internuclear angles:         12
 ==============================================================================





 Summary of "cc-pvdz" -> "" (spherical)
 ------------------------------------------------------------------------------
       Tag                 Description            Shells   Functions and Types
 ---------------- ------------------------------  ------  ---------------------
 *                          cc-pvdz                   on all atoms 




 Summary of "cc-pvtz" -> "" (spherical)
 ------------------------------------------------------------------------------
       Tag                 Description            Shells   Functions and Types
 ---------------- ------------------------------  ------  ---------------------
 *                          cc-pvtz                   on all atoms 




 Summary of "cc-pvqz" -> "" (spherical)
 ------------------------------------------------------------------------------
       Tag                 Description            Shells   Functions and Types
 ---------------- ------------------------------  ------  ---------------------
 *                          cc-pvqz                   on all atoms 




 Summary of "cc-pv5z" -> "" (spherical)
 ------------------------------------------------------------------------------
       Tag                 Description            Shells   Functions and Types
 ---------------- ------------------------------  ------  ---------------------
 *                          cc-pv5z                   on all atoms 




 Summary of "cc-pv6z" -> "" (spherical)
 ------------------------------------------------------------------------------
       Tag                 Description            Shells   Functions and Types
 ---------------- ------------------------------  ------  ---------------------
 *                          cc-pv6z                   on all atoms 


  pbe96 is a nonlocal functional; adding pw91lda local functional. 


                           NWChem Geometry Optimization
                           ----------------------------


  no constraints, skipping    0.0000000000000000     
 maximum gradient threshold         (gmax) =   0.000450
 rms gradient threshold             (grms) =   0.000300
 maximum cartesian step threshold   (xmax) =   0.001800
 rms cartesian step threshold       (xrms) =   0.001200
 fixed trust radius                (trust) =   0.300000
 maximum step size to saddle      (sadstp) =   0.100000
 energy precision                  (eprec) =   5.0D-06
 maximum number of steps          (nptopt) =   40
 initial hessian option           (inhess) =    0
 line search option               (linopt) =    1
 hessian update option            (modupd) =    1
 saddle point option              (modsad) =    0
 initial eigen-mode to follow     (moddir) =    0
 initial variable to follow       (vardir) =    0
 follow first negative mode     (firstneg) =    T
 apply conjugacy                    (opcg) =    F
 source of zmatrix                         =   autoz   


          -------------------
          Energy Minimization
          -------------------


 Names of Z-matrix variables 
    1              2              3              4              5         
    6              7              8              9             10         
   11             12             13             14             15         
   16             17             18             19             20         
   21             22             23             24             25         
   26             27             28             29             30         

 Variables with the same non-blank name are constrained to be equal


 Using diagonal initial Hessian 
 Scaling for Hessian diagonals: bonds = 1.00  angles = 0.25  torsions = 0.10

          --------
          Step   0
          --------


                         Geometry "geometry" -> "geometry"
                         ---------------------------------

 Output coordinates in angstroms (scale by  1.889725989 to convert to a.u.)

  No.       Tag          Charge          X              Y              Z
 ---- ---------------- ---------- -------------- -------------- --------------
    1 C                    6.0000     0.17260109    -1.22074068     0.00000000
    2 C                    6.0000    -0.47115414     0.12585946     0.00000000
    3 C                    6.0000     0.22313530     1.27023170     0.00000000
    4 H                    1.0000    -0.59433050    -2.00165341     0.00000000
    5 H                    1.0000     0.78995232    -1.35759185     0.89312548
    6 H                    1.0000     0.78995232    -1.35759185    -0.89312548
    7 H                    1.0000    -1.55855812     0.16115642     0.00000000
    8 H                    1.0000     1.30915519     1.27398534     0.00000000
    9 H                    1.0000    -0.28366476     2.22959244     0.00000000

      Atomic Mass 
      ----------- 

      C                 12.000000
      H                  1.007825


 Effective nuclear repulsion energy (a.u.)      70.8372708184

            Nuclear Dipole moment (a.u.) 
            ----------------------------
        X                 Y               Z
 ---------------- ---------------- ----------------
     0.0000000000    -0.0000000000     0.0000000000

      Symmetry information
      --------------------

 Group name             Cs        
 Group number              2
 Group order               2
 No. of unique centers     8

      Symmetry unique atoms

     1    2    3    4    5    7    8    9


                                 NWChem DFT Module
                                 -----------------


                      Basis "ao basis" -> "cc-pvdz" (spherical)
                      -----
  C (Carbon)
  ----------
            Exponent  Coefficients 
       -------------- ---------------------------------------------------------
  1 S  6.66500000E+03  0.000692
  1 S  1.00000000E+03  0.005329
  1 S  2.28000000E+02  0.027077
  1 S  6.47100000E+01  0.101718
  1 S  2.10600000E+01  0.274740
  1 S  7.49500000E+00  0.448564
  1 S  2.79700000E+00  0.285074
  1 S  5.21500000E-01  0.015204

  2 S  6.66500000E+03 -0.000146
  2 S  1.00000000E+03 -0.001154
  2 S  2.28000000E+02 -0.005725
  2 S  6.47100000E+01 -0.023312
  2 S  2.10600000E+01 -0.063955
  2 S  7.49500000E+00 -0.149981
  2 S  2.79700000E+00 -0.127262
  2 S  5.21500000E-01  0.544529

  3 S  1.59600000E-01  1.000000

  4 P  9.43900000E+00  0.038109
  4 P  2.00200000E+00  0.209480
  4 P  5.45600000E-01  0.508557

  5 P  1.51700000E-01  1.000000

  6 D  5.50000000E-01  1.000000

  H (Hydrogen)
  ------------
            Exponent  Coefficients 
       -------------- ---------------------------------------------------------
  1 S  1.30100000E+01  0.019685
  1 S  1.96200000E+00  0.137977
  1 S  4.44600000E-01  0.478148

  2 S  1.22000000E-01  1.000000

  3 P  7.27000000E-01  1.000000



 Summary of "ao basis" -> "cc-pvdz" (spherical)
 ------------------------------------------------------------------------------
       Tag                 Description            Shells   Functions and Types
 ---------------- ------------------------------  ------  ---------------------
 C                          cc-pvdz                  6       14   3s2p1d
 H                          cc-pvdz                  3        5   2s1p




 Summary of "ao basis" -> "cc-pvdz" (spherical)
 ------------------------------------------------------------------------------
       Tag                 Description            Shells   Functions and Types
 ---------------- ------------------------------  ------  ---------------------
 C                          cc-pvdz                  6       14   3s2p1d
 H                          cc-pvdz                  3        5   2s1p


      Symmetry analysis of basis
      --------------------------

        a'         51
        a"         21

  texas integral default override: limxmem =             50000000
  Caching 1-el integrals 
  itol2e modified to match energy
  convergence criterion.
  tol_rho modified to match energy
  convergence criterion.

            General Information
            -------------------
          SCF calculation type: DFT
          Wavefunction type:  closed shell.
          No. of atoms     :     9
          No. of electrons :    24
           Alpha electrons :    12
            Beta electrons :    12
          Charge           :     0
          Spin multiplicity:     1
          Use of symmetry is: on ; symmetry adaption is: on 
          Maximum number of iterations:  50
          This is a Direct SCF calculation.
          AO basis - number of functions:    72
                     number of shells:    36
          Convergence on energy requested:  1.00D-08
          Convergence on density requested:  1.00D-07
          Convergence on gradient requested:  1.00D-06

              XC Information
              --------------
          PerdewBurkeErnzerhof Exchange Functional  1.000          
            Perdew 1991 LDA Correlation Functional  1.000 local    
           PerdewBurkeErnz. Correlation Functional  1.000 non-local

             Grid Information
             ----------------
          Grid used for XC integration:  medium    
          Radial quadrature: Mura-Knowles        
          Angular quadrature: Lebedev. 
          Tag              B.-S. Rad. Rad. Pts. Rad. Cut. Ang. Pts.
          ---              ---------- --------- --------- ---------
          C                   0.70       49          10.0       434
          H                   0.35       45          11.0       434
          Grid pruning is: on 
          Number of quadrature shells:   372
          Spatial weights used:  Erf1

          Convergence Information
          -----------------------
          Convergence aids based upon iterative change in 
          total energy or number of iterations. 
          Levelshifting, if invoked, occurs when the 
          HOMO/LUMO gap drops below (HL_TOL):  1.00D-02
          DIIS, if invoked, will attempt to extrapolate 
          using up to (NFOCK): 10 stored Fock matrices.

                    Damping( 0%)  Levelshifting(0.5)       DIIS
                  --------------- ------------------- ---------------
          dE  on:    start            ASAP                start   
          dE off:    2 iters         50 iters            50 iters 


      Screening Tolerance Information
      -------------------------------
          Density screening/tol_rho:  1.00D-11
          AO Gaussian exp screening on grid/accAOfunc:  18
          CD Gaussian exp screening on grid/accCDfunc:  20
          XC Gaussian exp screening on grid/accXCfunc:  20
          Schwarz screening/accCoul:  1.00D-09


      Superposition of Atomic Density Guess
      -------------------------------------

 Sum of atomic energies:        -115.99411233

      Non-variational initial energy
      ------------------------------

 Total energy =    -117.935664
 1-e energy   =    -293.719300
 2-e energy   =     104.946365
 HOMO         =      -0.306653
 LUMO         =       0.006284


      Symmetry analysis of molecular orbitals - initial
      -------------------------------------------------

  Numbering of irreducible representations: 

     1 a'          2 a"      

  Orbital symmetries:

     1 a'          2 a'          3 a'          4 a'          5 a'      
     6 a'          7 a'          8 a"          9 a'         10 a'      
    11 a'         12 a"         13 a"         14 a'         15 a'      
    16 a'         17 a'         18 a"         19 a'         20 a'      
    21 a'         22 a'      

   Time after variat. SCF:      1.5
   Time prior to 1st pass:      1.5

 Grid_pts file          = ./propene-dat.gridpts.00
 Record size in doubles =  12289        No. of grid_pts per rec  =   3070
 Max. records in memory =      5        Max. recs in file   =    107425


           Memory utilization after 1st SCF pass: 
           Heap Space remaining (MW):       13.04            13041590
          Stack Space remaining (MW):       65.54            65535380

   convergence    iter        energy       DeltaE   RMS-Dens  Diis-err    time
 ---------------- ----- ----------------- --------- --------- ---------  ------
 d= 0,ls=0.0,diis     1   -117.7044173087 -1.89D+02  7.29D-03  2.58D-01     1.8
 d= 0,ls=0.0,diis     2   -117.7244646432 -2.00D-02  4.42D-03  4.02D-02     2.1
 d= 0,ls=0.0,diis     3   -117.7129715420  1.15D-02  3.01D-03  1.22D-01     2.4
 d= 0,ls=0.0,diis     4   -117.7299512355 -1.70D-02  4.45D-04  1.76D-03     2.7
 d= 0,ls=0.0,diis     5   -117.7301693788 -2.18D-04  1.31D-04  1.55D-04     3.0
  Resetting Diis
 d= 0,ls=0.0,diis     6   -117.7301919507 -2.26D-05  1.37D-05  1.62D-06     3.3
 d= 0,ls=0.0,diis     7   -117.7301921628 -2.12D-07  6.77D-06  1.14D-07     3.6
 d= 0,ls=0.0,diis     8   -117.7301921555  7.30D-09  3.63D-06  1.76D-07     3.8
 d= 0,ls=0.0,diis     9   -117.7301921778 -2.23D-08  5.55D-07  2.46D-09     4.1
 d= 0,ls=0.0,diis    10   -117.7301921781 -3.54D-10  5.63D-08  2.22D-11     4.4


         Total DFT energy =     -117.730192178107
      One electron energy =     -297.106256810852
           Coulomb energy =      126.849033294488
    Exchange-Corr. energy =      -18.310239480192
 Nuclear repulsion energy =       70.837270818449

 Numeric. integr. density =       24.000002248993

     Total iterative time =      2.9s



                  Occupations of the irreducible representations
                  ----------------------------------------------

                     irrep           alpha         beta
                     --------     --------     --------
                     a'               10.0         10.0
                     a"                2.0          2.0


                       DFT Final Molecular Orbital Analysis
                       ------------------------------------

 Vector    1  Occ=2.000000D+00  E=-9.895708D+00  Symmetry=a'
              MO Center= -4.7D-01,  1.3D-01, -1.7D-19, r^2= 2.9D-02
   Bfn.  Coefficient  Atom+Function         Bfn.  Coefficient  Atom+Function  
  ----- ------------  ---------------      ----- ------------  ---------------
    15      1.007159  2 C  s          

 Vector    2  Occ=2.000000D+00  E=-9.889477D+00  Symmetry=a'
              MO Center=  1.7D-01, -1.2D+00, -2.6D-17, r^2= 2.8D-02
   Bfn.  Coefficient  Atom+Function         Bfn.  Coefficient  Atom+Function  
  ----- ------------  ---------------      ----- ------------  ---------------
     1      1.008021  1 C  s          

 Vector    3  Occ=2.000000D+00  E=-9.881647D+00  Symmetry=a'
              MO Center=  2.2D-01,  1.3D+00,  5.9D-20, r^2= 2.8D-02
   Bfn.  Coefficient  Atom+Function         Bfn.  Coefficient  Atom+Function  
  ----- ------------  ---------------      ----- ------------  ---------------
    29      1.007135  3 C  s          

 Vector    4  Occ=2.000000D+00  E=-7.102182D-01  Symmetry=a'
              MO Center= -8.6D-02, -2.0D-02,  1.8D-15, r^2= 1.6D+00
   Bfn.  Coefficient  Atom+Function         Bfn.  Coefficient  Atom+Function  
  ----- ------------  ---------------      ----- ------------  ---------------
    16      0.289210  2 C  s                 17      0.227746  2 C  s          
     2      0.225847  1 C  s                 30      0.210525  3 C  s          
    31      0.109710  3 C  s                  3      0.102041  1 C  s          
    58      0.102271  7 H  s                 48      0.088122  5 H  s          
    53      0.088122  6 H  s                 33     -0.084696  3 C  py         

 Vector    5  Occ=2.000000D+00  E=-6.132874D-01  Symmetry=a'
              MO Center=  1.1D-01, -1.6D-01, -5.2D-16, r^2= 2.6D+00
   Bfn.  Coefficient  Atom+Function         Bfn.  Coefficient  Atom+Function  
  ----- ------------  ---------------      ----- ------------  ---------------
     2      0.290457  1 C  s                 30     -0.264290  3 C  s          
    19     -0.199547  2 C  py                31     -0.159827  3 C  s          
     3      0.153440  1 C  s                 43      0.151050  4 H  s          
    48      0.138050  5 H  s                 53      0.138050  6 H  s          
    68     -0.131523  9 H  s                 63     -0.110720  8 H  s          

 Vector    6  Occ=2.000000D+00  E=-4.919026D-01  Symmetry=a'
              MO Center= -1.1D-01,  3.4D-01, -4.4D-18, r^2= 2.7D+00
   Bfn.  Coefficient  Atom+Function         Bfn.  Coefficient  Atom+Function  
  ----- ------------  ---------------      ----- ------------  ---------------
    16      0.250742  2 C  s                 58      0.244052  7 H  s          
    63     -0.198228  8 H  s                 30     -0.181138  3 C  s          
    18     -0.157512  2 C  px                17      0.146085  2 C  s          
    32     -0.141639  3 C  px                68     -0.136989  9 H  s          
    33     -0.122196  3 C  py                 4     -0.116186  1 C  px         

 Vector    7  Occ=2.000000D+00  E=-4.110124D-01  Symmetry=a'
              MO Center= -2.0D-01,  3.7D-01, -3.1D-16, r^2= 2.8D+00
   Bfn.  Coefficient  Atom+Function         Bfn.  Coefficient  Atom+Function  
  ----- ------------  ---------------      ----- ------------  ---------------
    33     -0.288724  3 C  py                18      0.278501  2 C  px         
    68     -0.257676  9 H  s                  5      0.221238  1 C  py         
    43     -0.192915  4 H  s                 58     -0.161817  7 H  s          
    32      0.125055  3 C  px                 4      0.104828  1 C  px         
    36     -0.092482  3 C  py                 8      0.090182  1 C  py         

 Vector    8  Occ=2.000000D+00  E=-3.697196D-01  Symmetry=a'
              MO Center=  3.0D-01,  1.1D-01,  2.1D-14, r^2= 2.5D+00
   Bfn.  Coefficient  Atom+Function         Bfn.  Coefficient  Atom+Function  
  ----- ------------  ---------------      ----- ------------  ---------------
    32      0.324009  3 C  px                19     -0.300322  2 C  py         
     4     -0.279260  1 C  px                63      0.266281  8 H  s          
    48     -0.150406  5 H  s                 53     -0.150406  6 H  s          
    22     -0.124316  2 C  py                64      0.112485  8 H  s          
    33      0.110159  3 C  py                 5      0.108545  1 C  py         

 Vector    9  Occ=2.000000D+00  E=-3.674733D-01  Symmetry=a"
              MO Center=  3.6D-01, -1.1D+00, -2.3D-14, r^2= 1.5D+00
   Bfn.  Coefficient  Atom+Function         Bfn.  Coefficient  Atom+Function  
  ----- ------------  ---------------      ----- ------------  ---------------
     6      0.422847  1 C  pz                48      0.288243  5 H  s          
    53     -0.288243  6 H  s                 20      0.167288  2 C  pz         
     9      0.156553  1 C  pz                49      0.119337  5 H  s          
    54     -0.119337  6 H  s                 23      0.090903  2 C  pz         
    34      0.072242  3 C  pz                37      0.031419  3 C  pz         

 Vector   10  Occ=2.000000D+00  E=-3.177645D-01  Symmetry=a'
              MO Center= -1.4D-01, -5.2D-01,  1.0D-16, r^2= 2.9D+00
   Bfn.  Coefficient  Atom+Function         Bfn.  Coefficient  Atom+Function  
  ----- ------------  ---------------      ----- ------------  ---------------
    43      0.328009  4 H  s                  5     -0.293455  1 C  py         
    33     -0.284939  3 C  py                19      0.245474  2 C  py         
     4     -0.216771  1 C  px                68     -0.192203  9 H  s          
    44      0.176492  4 H  s                  8     -0.125022  1 C  py         
    18      0.110427  2 C  px                69     -0.109822  9 H  s          

 Vector   11  Occ=2.000000D+00  E=-2.981605D-01  Symmetry=a'
              MO Center= -1.3D-01,  2.9D-01,  2.6D-16, r^2= 2.8D+00
   Bfn.  Coefficient  Atom+Function         Bfn.  Coefficient  Atom+Function  
  ----- ------------  ---------------      ----- ------------  ---------------
    58     -0.291742  7 H  s                 18      0.288688  2 C  px         
    32     -0.236173  3 C  px                63     -0.236909  8 H  s          
     4     -0.219514  1 C  px                68      0.211945  9 H  s          
    59     -0.191810  7 H  s                  5      0.184378  1 C  py         
    64     -0.174634  8 H  s                  3      0.141837  1 C  s          

 Vector   12  Occ=2.000000D+00  E=-2.188757D-01  Symmetry=a"
              MO Center= -2.0D-02,  5.5D-01, -7.2D-16, r^2= 1.9D+00
   Bfn.  Coefficient  Atom+Function         Bfn.  Coefficient  Atom+Function  
  ----- ------------  ---------------      ----- ------------  ---------------
    34      0.416697  3 C  pz                20      0.380372  2 C  pz         
    37      0.283822  3 C  pz                23      0.250929  2 C  pz         
     6     -0.134814  1 C  pz                48     -0.134998  5 H  s          
    53      0.134998  6 H  s                 49     -0.081994  5 H  s          
    54      0.081994  6 H  s                  9     -0.070943  1 C  pz         

 Vector   13  Occ=0.000000D+00  E=-2.052819D-02  Symmetry=a"
              MO Center= -2.7D-02,  5.1D-01, -7.6D-16, r^2= 2.5D+00
   Bfn.  Coefficient  Atom+Function         Bfn.  Coefficient  Atom+Function  
  ----- ------------  ---------------      ----- ------------  ---------------
    37     -0.568369  3 C  pz                23      0.558862  2 C  pz         
    20      0.445173  2 C  pz                34     -0.409896  3 C  pz         
    49     -0.328976  5 H  s                 54      0.328976  6 H  s          
     9      0.144407  1 C  pz                48     -0.119875  5 H  s          
    53      0.119875  6 H  s                  6      0.028539  1 C  pz         

 Vector   14  Occ=0.000000D+00  E= 5.366943D-02  Symmetry=a'
              MO Center= -5.5D-01, -5.1D-01, -5.1D-16, r^2= 6.1D+00
   Bfn.  Coefficient  Atom+Function         Bfn.  Coefficient  Atom+Function  
  ----- ------------  ---------------      ----- ------------  ---------------
     3      1.338611  1 C  s                 44     -0.964834  4 H  s          
    59     -0.877095  7 H  s                 17      0.783713  2 C  s          
    69     -0.659350  9 H  s                 31      0.623896  3 C  s          
    49     -0.469577  5 H  s                 54     -0.469577  6 H  s          
    21     -0.399413  2 C  px                 8     -0.375172  1 C  py         

 Vector   15  Occ=0.000000D+00  E= 7.378421D-02  Symmetry=a'
              MO Center=  1.4D-01, -4.5D-01,  1.4D-14, r^2= 6.0D+00
   Bfn.  Coefficient  Atom+Function         Bfn.  Coefficient  Atom+Function  
  ----- ------------  ---------------      ----- ------------  ---------------
     3      1.229129  1 C  s                 59      1.021402  7 H  s          
    49     -0.965644  5 H  s                 54     -0.965644  6 H  s          
    17     -0.662110  2 C  s                 64     -0.658461  8 H  s          
     7      0.498645  1 C  px                69      0.473745  9 H  s          
    35      0.367175  3 C  px                21      0.348763  2 C  px         

 Vector   16  Occ=0.000000D+00  E= 9.075058D-02  Symmetry=a'
              MO Center=  5.5D-01,  1.0D+00, -2.9D-15, r^2= 6.1D+00
   Bfn.  Coefficient  Atom+Function         Bfn.  Coefficient  Atom+Function  
  ----- ------------  ---------------      ----- ------------  ---------------
    31      1.649979  3 C  s                 64     -1.378776  8 H  s          
    69     -0.996617  9 H  s                  3     -0.980399  1 C  s          
    44      0.658646  4 H  s                 36      0.413878  3 C  py         
    35      0.350036  3 C  px                49      0.271607  5 H  s          
    54      0.271607  6 H  s                 59      0.271437  7 H  s          

 Vector   17  Occ=0.000000D+00  E= 1.264851D-01  Symmetry=a'
              MO Center=  1.8D-01,  3.5D-01, -1.0D-16, r^2= 7.2D+00
   Bfn.  Coefficient  Atom+Function         Bfn.  Coefficient  Atom+Function  
  ----- ------------  ---------------      ----- ------------  ---------------
    69      1.379911  9 H  s                 44     -1.222214  4 H  s          
    64     -1.199299  8 H  s                 35      0.875841  3 C  px         
     7     -0.651564  1 C  px                 8     -0.621003  1 C  py         
    49      0.610537  5 H  s                 54      0.610537  6 H  s          
    36     -0.462110  3 C  py                17      0.434486  2 C  s          

 Vector   18  Occ=0.000000D+00  E= 1.300042D-01  Symmetry=a"
              MO Center=  8.5D-01, -1.2D+00, -7.4D-15, r^2= 3.9D+00
   Bfn.  Coefficient  Atom+Function         Bfn.  Coefficient  Atom+Function  
  ----- ------------  ---------------      ----- ------------  ---------------
    49      1.627691  5 H  s                 54     -1.627691  6 H  s          
     9     -1.275153  1 C  pz                 6     -0.419444  1 C  pz         
    23      0.387893  2 C  pz                37     -0.208004  3 C  pz         
    34     -0.142726  3 C  pz                20      0.120109  2 C  pz         
    48      0.064922  5 H  s                 53     -0.064922  6 H  s          

 Vector   19  Occ=0.000000D+00  E= 1.396091D-01  Symmetry=a'
              MO Center= -8.9D-01, -3.6D-01,  1.3D-15, r^2= 6.0D+00
   Bfn.  Coefficient  Atom+Function         Bfn.  Coefficient  Atom+Function  
  ----- ------------  ---------------      ----- ------------  ---------------
    17      1.808977  2 C  s                 59     -1.470135  7 H  s          
    44      1.303649  4 H  s                  7      0.973083  1 C  px         
    69      0.892685  9 H  s                  3     -0.697046  1 C  s          
    21     -0.554798  2 C  px                35      0.557181  3 C  px         
    31     -0.472502  3 C  s                 49     -0.465392  5 H  s          

 Vector   20  Occ=0.000000D+00  E= 2.260478D-01  Symmetry=a'
              MO Center=  8.5D-02, -2.7D-01,  1.3D-16, r^2= 5.4D+00
   Bfn.  Coefficient  Atom+Function         Bfn.  Coefficient  Atom+Function  
  ----- ------------  ---------------      ----- ------------  ---------------
    17      2.462839  2 C  s                  8     -1.905742  1 C  py         
    21      1.896722  2 C  px                 3     -1.668633  1 C  s          
    59      1.368443  7 H  s                 36      1.338203  3 C  py         
    64      1.040812  8 H  s                 31     -1.029740  3 C  s          
    69     -1.020143  9 H  s                 22     -1.013650  2 C  py         

 Vector   21  Occ=0.000000D+00  E= 2.854516D-01  Symmetry=a'
              MO Center=  2.4D-01,  7.8D-01,  6.5D-16, r^2= 4.1D+00
   Bfn.  Coefficient  Atom+Function         Bfn.  Coefficient  Atom+Function  
  ----- ------------  ---------------      ----- ------------  ---------------
    31      3.394074  3 C  s                 22     -2.907764  2 C  py         
    17     -2.832419  2 C  s                 36     -2.458852  3 C  py         
    35     -1.665267  3 C  px                21     -1.433885  2 C  px         
     7      1.057158  1 C  px                64      0.710786  8 H  s          
    59     -0.590796  7 H  s                  3     -0.511899  1 C  s          

 Vector   22  Occ=0.000000D+00  E= 3.739663D-01  Symmetry=a'
              MO Center= -2.8D-01, -5.8D-01, -3.4D-15, r^2= 3.5D+00
   Bfn.  Coefficient  Atom+Function         Bfn.  Coefficient  Atom+Function  
  ----- ------------  ---------------      ----- ------------  ---------------
    22      1.240089  2 C  py                 3      0.635854  1 C  s          
    31     -0.588380  3 C  s                 43      0.560535  4 H  s          
    44     -0.471936  4 H  s                 35      0.463264  3 C  px         
     8      0.363681  1 C  py                58      0.365004  7 H  s          
    49      0.344302  5 H  s                 54      0.344302  6 H  s          

 Vector   23  Occ=0.000000D+00  E= 3.937758D-01  Symmetry=a'
              MO Center= -1.4D-01,  3.1D-01, -4.1D-16, r^2= 4.3D+00
   Bfn.  Coefficient  Atom+Function         Bfn.  Coefficient  Atom+Function  
  ----- ------------  ---------------      ----- ------------  ---------------
     8      0.710641  1 C  py                22     -0.602239  2 C  py         
    63     -0.507344  8 H  s                 36      0.472708  3 C  py         
    35      0.439601  3 C  px                19      0.358567  2 C  py         
     5     -0.343525  1 C  py                31      0.344437  3 C  s          
    69     -0.305485  9 H  s                 58      0.277982  7 H  s          

 Vector   24  Occ=0.000000D+00  E= 4.270091D-01  Symmetry=a"
              MO Center=  7.9D-02, -6.7D-01, -5.4D-15, r^2= 3.1D+00
   Bfn.  Coefficient  Atom+Function         Bfn.  Coefficient  Atom+Function  
  ----- ------------  ---------------      ----- ------------  ---------------
     9      0.799447  1 C  pz                48     -0.593038  5 H  s          
    53      0.593038  6 H  s                 20     -0.484003  2 C  pz         
    37      0.377743  3 C  pz                34     -0.316214  3 C  pz         
    13      0.153997  1 C  d  1              49      0.143964  5 H  s          
    54     -0.143964  6 H  s                  6     -0.101512  1 C  pz         

 Vector   25  Occ=0.000000D+00  E= 4.517495D-01  Symmetry=a'
              MO Center= -1.3D-01, -1.9D-01,  2.6D-16, r^2= 3.0D+00
   Bfn.  Coefficient  Atom+Function         Bfn.  Coefficient  Atom+Function  
  ----- ------------  ---------------      ----- ------------  ---------------
     7      0.920377  1 C  px                22     -0.812228  2 C  py         
     8     -0.622220  1 C  py                 5      0.490444  1 C  py         
    21     -0.478915  2 C  px                59     -0.449428  7 H  s          
     3     -0.426505  1 C  s                  4     -0.413738  1 C  px         
    58      0.402104  7 H  s                 17      0.318655  2 C  s          

 Vector   26  Occ=0.000000D+00  E= 4.817696D-01  Symmetry=a"
              MO Center=  3.6D-02,  3.6D-01,  5.5D-16, r^2= 3.9D+00
   Bfn.  Coefficient  Atom+Function         Bfn.  Coefficient  Atom+Function  
  ----- ------------  ---------------      ----- ------------  ---------------
     9      0.769660  1 C  pz                34      0.766387  3 C  pz         
    37     -0.758599  3 C  pz                23     -0.470507  2 C  pz         
    48     -0.364720  5 H  s                 53      0.364720  6 H  s          
    20      0.272451  2 C  pz                 6     -0.168828  1 C  pz         
    49      0.147918  5 H  s                 54     -0.147918  6 H  s          

 Vector   27  Occ=0.000000D+00  E= 4.867312D-01  Symmetry=a'
              MO Center=  3.4D-01,  1.2D+00, -4.5D-15, r^2= 3.1D+00
   Bfn.  Coefficient  Atom+Function         Bfn.  Coefficient  Atom+Function  
  ----- ------------  ---------------      ----- ------------  ---------------
    31     -0.891986  3 C  s                 22      0.823333  2 C  py         
    68      0.776022  9 H  s                  7     -0.729168  1 C  px         
    69     -0.684194  9 H  s                 63      0.660585  8 H  s          
     3      0.425087  1 C  s                  8      0.383696  1 C  py         
    21      0.374111  2 C  px                64     -0.312045  8 H  s          

 Vector   28  Occ=0.000000D+00  E= 5.500493D-01  Symmetry=a"
              MO Center= -2.9D-01,  3.0D-01,  5.5D-15, r^2= 3.3D+00
   Bfn.  Coefficient  Atom+Function         Bfn.  Coefficient  Atom+Function  
  ----- ------------  ---------------      ----- ------------  ---------------
    23      1.447310  2 C  pz                37     -0.987635  3 C  pz         
    20     -0.793754  2 C  pz                34      0.478813  3 C  pz         
    49     -0.388909  5 H  s                 54      0.388909  6 H  s          
    48      0.219511  5 H  s                 53     -0.219511  6 H  s          
     6     -0.172431  1 C  pz                 9     -0.121708  1 C  pz         

 Vector   29  Occ=0.000000D+00  E= 5.577580D-01  Symmetry=a'
              MO Center= -3.9D-02, -1.9D-01, -9.6D-15, r^2= 4.2D+00
   Bfn.  Coefficient  Atom+Function         Bfn.  Coefficient  Atom+Function  
  ----- ------------  ---------------      ----- ------------  ---------------
    22      1.302537  2 C  py                31     -1.181975  3 C  s          
     7     -0.975294  1 C  px                64      0.928789  8 H  s          
    21      0.686106  2 C  px                58      0.649891  7 H  s          
    43     -0.473699  4 H  s                 59     -0.468182  7 H  s          
    69     -0.469059  9 H  s                  3      0.442585  1 C  s          

 Vector   30  Occ=0.000000D+00  E= 6.013547D-01  Symmetry=a'
              MO Center=  1.9D-01, -1.1D+00, -4.4D-14, r^2= 3.7D+00
   Bfn.  Coefficient  Atom+Function         Bfn.  Coefficient  Atom+Function  
  ----- ------------  ---------------      ----- ------------  ---------------
    44      1.655755  4 H  s                  7      1.615246  1 C  px         
     8      1.172100  1 C  py                49     -0.937282  5 H  s          
    54     -0.937282  6 H  s                  4     -0.707791  1 C  px         
     3      0.645078  1 C  s                 36      0.642454  3 C  py         
    22      0.628716  2 C  py                69     -0.602529  9 H  s          

 Vector   31  Occ=0.000000D+00  E= 6.083770D-01  Symmetry=a"
              MO Center=  4.1D-01, -1.2D+00,  3.9D-15, r^2= 3.3D+00
   Bfn.  Coefficient  Atom+Function         Bfn.  Coefficient  Atom+Function  
  ----- ------------  ---------------      ----- ------------  ---------------
     9      2.294243  1 C  pz                49     -1.662451  5 H  s          
    54      1.662451  6 H  s                  6     -0.862438  1 C  pz         
    23     -0.756650  2 C  pz                37      0.488773  3 C  pz         
    34     -0.227210  3 C  pz                13     -0.209658  1 C  d  1       
    20      0.206426  2 C  pz                48      0.166731  5 H  s          

 Vector   32  Occ=0.000000D+00  E= 6.206779D-01  Symmetry=a'
              MO Center= -2.3D-01, -5.6D-01,  4.6D-14, r^2= 3.5D+00
   Bfn.  Coefficient  Atom+Function         Bfn.  Coefficient  Atom+Function  
  ----- ------------  ---------------      ----- ------------  ---------------
    21     -1.619599  2 C  px                 3      1.542420  1 C  s          
    59     -1.073438  7 H  s                 17     -0.843786  2 C  s          
    22      0.843391  2 C  py                 8      0.743051  1 C  py         
    18      0.550009  2 C  px                43      0.526242  4 H  s          
     2     -0.511467  1 C  s                 44     -0.506124  4 H  s          

 Vector   33  Occ=0.000000D+00  E= 6.395110D-01  Symmetry=a'
              MO Center= -1.9D-02,  1.8D-01,  5.2D-17, r^2= 5.2D+00
   Bfn.  Coefficient  Atom+Function         Bfn.  Coefficient  Atom+Function  
  ----- ------------  ---------------      ----- ------------  ---------------
    35      1.881617  3 C  px                64     -1.500176  8 H  s          
    69      1.335557  9 H  s                 21     -1.306661  2 C  px         
     8      1.269883  1 C  py                44      1.172141  4 H  s          
    22      1.162769  2 C  py                59     -1.001835  7 H  s          
    36     -0.901638  3 C  py                32     -0.572638  3 C  px         

 Vector   34  Occ=0.000000D+00  E= 6.504712D-01  Symmetry=a'
              MO Center= -1.1D-01, -1.2D-01,  9.7D-15, r^2= 4.3D+00
   Bfn.  Coefficient  Atom+Function         Bfn.  Coefficient  Atom+Function  
  ----- ------------  ---------------      ----- ------------  ---------------
    21      2.213153  2 C  px                59      1.574215  7 H  s          
     8     -1.219770  1 C  py                35      1.119800  3 C  px         
    31     -1.039536  3 C  s                 17      0.949230  2 C  s          
    64     -0.784077  8 H  s                 44     -0.660339  4 H  s          
    18     -0.546724  2 C  px                49     -0.515602  5 H  s          

 Vector   35  Occ=0.000000D+00  E= 6.943244D-01  Symmetry=a'
              MO Center=  1.3D-01,  4.0D-01, -3.7D-15, r^2= 4.6D+00
   Bfn.  Coefficient  Atom+Function         Bfn.  Coefficient  Atom+Function  
  ----- ------------  ---------------      ----- ------------  ---------------
    22      2.588385  2 C  py                36      2.135409  3 C  py         
     8      1.446681  1 C  py                35      1.268364  3 C  px         
    69     -1.143910  9 H  s                 64     -1.052631  8 H  s          
    31     -0.908465  3 C  s                 49      0.715657  5 H  s          
    54      0.715657  6 H  s                  7     -0.696721  1 C  px         

 Vector   36  Occ=0.000000D+00  E= 7.726196D-01  Symmetry=a'
              MO Center= -8.4D-02,  6.4D-01, -2.4D-17, r^2= 4.0D+00
   Bfn.  Coefficient  Atom+Function         Bfn.  Coefficient  Atom+Function  
  ----- ------------  ---------------      ----- ------------  ---------------
    31      2.501942  3 C  s                 17      2.435886  2 C  s          
    30     -1.135889  3 C  s                 16     -1.080788  2 C  s          
    59     -0.937064  7 H  s                 64     -0.892370  8 H  s          
    69     -0.843921  9 H  s                  7      0.820797  1 C  px         
    21     -0.772445  2 C  px                22     -0.637609  2 C  py         

 Vector   37  Occ=0.000000D+00  E= 8.077843D-01  Symmetry=a"
              MO Center= -9.7D-03, -3.4D-01, -2.6D-15, r^2= 2.4D+00
   Bfn.  Coefficient  Atom+Function         Bfn.  Coefficient  Atom+Function  
  ----- ------------  ---------------      ----- ------------  ---------------
     9      0.430561  1 C  pz                27     -0.374226  2 C  d  1       
    11      0.366493  1 C  d -1              49     -0.340282  5 H  s          
    54      0.340282  6 H  s                 41     -0.251576  3 C  d  1       
     6     -0.193891  1 C  pz                51      0.193987  5 H  py         
    56     -0.193987  6 H  py                25     -0.171937  2 C  d -1       

 Vector   38  Occ=0.000000D+00  E= 9.470479D-01  Symmetry=a"
              MO Center=  1.8D-01,  8.2D-01, -8.3D-15, r^2= 2.5D+00
   Bfn.  Coefficient  Atom+Function         Bfn.  Coefficient  Atom+Function  
  ----- ------------  ---------------      ----- ------------  ---------------
    39      0.427853  3 C  d -1              72      0.359444  9 H  pz         
    41      0.308751  3 C  d  1              11      0.294845  1 C  d -1       
     9      0.263598  1 C  pz                67     -0.214854  8 H  pz         
    23     -0.213628  2 C  pz                25     -0.179971  2 C  d -1       
    51      0.141621  5 H  py                56     -0.141621  6 H  py         

 Vector   39  Occ=0.000000D+00  E= 9.688105D-01  Symmetry=a'
              MO Center= -3.8D-01,  6.8D-01, -7.7D-15, r^2= 3.7D+00
   Bfn.  Coefficient  Atom+Function         Bfn.  Coefficient  Atom+Function  
  ----- ------------  ---------------      ----- ------------  ---------------
    22      3.499554  2 C  py                 3      3.255585  1 C  s          
    35      3.133795  3 C  px                31     -3.015284  3 C  s          
    21     -1.935199  2 C  px                17      1.385299  2 C  s          
    69      1.042517  9 H  s                  7     -0.912190  1 C  px         
    59     -0.912150  7 H  s                 64     -0.824472  8 H  s          

 Vector   40  Occ=0.000000D+00  E= 9.729226D-01  Symmetry=a"
              MO Center= -3.3D-02,  7.1D-01,  1.2D-14, r^2= 1.8D+00
   Bfn.  Coefficient  Atom+Function         Bfn.  Coefficient  Atom+Function  
  ----- ------------  ---------------      ----- ------------  ---------------
    41      0.437424  3 C  d  1              27     -0.339753  2 C  d  1       
    67     -0.327256  8 H  pz                25      0.303214  2 C  d -1       
    62     -0.271985  7 H  pz                39     -0.229058  3 C  d -1       
     9      0.206219  1 C  pz                34     -0.168991  3 C  pz         
    37      0.154049  3 C  pz                20     -0.125688  2 C  pz         

 Vector   41  Occ=0.000000D+00  E= 9.951093D-01  Symmetry=a'
              MO Center=  1.7D-01,  2.7D-01,  4.8D-15, r^2= 3.3D+00
   Bfn.  Coefficient  Atom+Function         Bfn.  Coefficient  Atom+Function  
  ----- ------------  ---------------      ----- ------------  ---------------
    17      5.195280  2 C  s                 31     -4.879125  3 C  s          
    36      1.967905  3 C  py                21      1.386116  2 C  px         
    30      1.228422  3 C  s                 16     -1.147102  2 C  s          
     7      0.775690  1 C  px                22      0.725888  2 C  py         
    64      0.583056  8 H  s                 29      0.567945  3 C  s          

 Vector   42  Occ=0.000000D+00  E= 1.120090D+00  Symmetry=a'
              MO Center= -4.0D-03, -5.9D-01, -2.8D-16, r^2= 3.3D+00
   Bfn.  Coefficient  Atom+Function         Bfn.  Coefficient  Atom+Function  
  ----- ------------  ---------------      ----- ------------  ---------------
     3      5.471858  1 C  s                 17     -2.984079  2 C  s          
     2     -1.740200  1 C  s                 31      1.199404  3 C  s          
    22      0.905311  2 C  py                 1     -0.868546  1 C  s          
     8      0.802803  1 C  py                43     -0.659651  4 H  s          
    44     -0.555053  4 H  s                 48     -0.537645  5 H  s          

 Vector   43  Occ=0.000000D+00  E= 1.225115D+00  Symmetry=a'
              MO Center= -2.6D-01, -6.9D-01, -4.4D-16, r^2= 3.1D+00
   Bfn.  Coefficient  Atom+Function         Bfn.  Coefficient  Atom+Function  
  ----- ------------  ---------------      ----- ------------  ---------------
    21      3.819970  2 C  px                31     -3.248308  3 C  s          
    17      2.548594  2 C  s                 36      1.602048  3 C  py         
    59      1.273533  7 H  s                  8     -1.190780  1 C  py         
     3     -1.152145  1 C  s                 35     -0.898004  3 C  px         
    58      0.778006  7 H  s                  7     -0.697509  1 C  px         

 Vector   44  Occ=0.000000D+00  E= 1.300589D+00  Symmetry=a"
              MO Center= -3.8D-02, -4.1D-01, -2.0D-15, r^2= 2.8D+00
   Bfn.  Coefficient  Atom+Function         Bfn.  Coefficient  Atom+Function  
  ----- ------------  ---------------      ----- ------------  ---------------
    23      0.740500  2 C  pz                 9     -0.611134  1 C  pz         
    25     -0.448677  2 C  d -1              51     -0.409050  5 H  py         
    56      0.409050  6 H  py                62     -0.367666  7 H  pz         
    27     -0.353486  2 C  d  1              37     -0.317292  3 C  pz         
    72      0.222858  9 H  pz                11     -0.206480  1 C  d -1       

 Vector   45  Occ=0.000000D+00  E= 1.356894D+00  Symmetry=a"
              MO Center=  3.7D-01, -1.5D+00,  9.4D-14, r^2= 1.6D+00
   Bfn.  Coefficient  Atom+Function         Bfn.  Coefficient  Atom+Function  
  ----- ------------  ---------------      ----- ------------  ---------------
    47      0.574119  4 H  pz                50      0.492772  5 H  px         
    55     -0.492772  6 H  px                52     -0.324196  5 H  pz         
    57     -0.324196  6 H  pz                51      0.176969  5 H  py         
    56     -0.176969  6 H  py                25     -0.058160  2 C  d -1       
    67     -0.039991  8 H  pz                 9      0.029288  1 C  pz         

 Vector   46  Occ=0.000000D+00  E= 1.358565D+00  Symmetry=a'
              MO Center=  1.1D-01,  4.8D-01, -8.7D-14, r^2= 3.3D+00
   Bfn.  Coefficient  Atom+Function         Bfn.  Coefficient  Atom+Function  
  ----- ------------  ---------------      ----- ------------  ---------------
    17     -4.053154  2 C  s                  3      3.801993  1 C  s          
    36     -1.378765  3 C  py                21     -1.269740  2 C  px         
    22      1.156518  2 C  py                 8      1.049284  1 C  py         
     2     -0.714209  1 C  s                 31      0.714635  3 C  s          
    68      0.602713  9 H  s                 16      0.554060  2 C  s          

 Vector   47  Occ=0.000000D+00  E= 1.426346D+00  Symmetry=a'
              MO Center=  4.3D-01,  1.6D+00,  1.2D-15, r^2= 1.9D+00
   Bfn.  Coefficient  Atom+Function         Bfn.  Coefficient  Atom+Function  
  ----- ------------  ---------------      ----- ------------  ---------------
    35      1.928618  3 C  px                22      1.093446  2 C  py         
    31     -0.817874  3 C  s                 36     -0.743125  3 C  py         
    17      0.679691  2 C  s                 63     -0.681627  8 H  s          
    70     -0.645890  9 H  px                69      0.639835  9 H  s          
    68      0.630307  9 H  s                 64     -0.610250  8 H  s          

 Vector   48  Occ=0.000000D+00  E= 1.448303D+00  Symmetry=a'
              MO Center= -2.3D-01,  1.8D-01, -6.4D-16, r^2= 2.7D+00
   Bfn.  Coefficient  Atom+Function         Bfn.  Coefficient  Atom+Function  
  ----- ------------  ---------------      ----- ------------  ---------------
    22      1.740109  2 C  py                31     -1.014516  3 C  s          
     3      0.723186  1 C  s                  7     -0.513905  1 C  px         
    35      0.504558  3 C  px                21     -0.476958  2 C  px         
    58     -0.464421  7 H  s                 36     -0.456561  3 C  py         
    43     -0.456689  4 H  s                 24      0.417605  2 C  d -2       

 Vector   49  Occ=0.000000D+00  E= 1.499101D+00  Symmetry=a"
              MO Center=  1.7D-01,  6.3D-01, -5.0D-16, r^2= 3.0D+00
   Bfn.  Coefficient  Atom+Function         Bfn.  Coefficient  Atom+Function  
  ----- ------------  ---------------      ----- ------------  ---------------
    37      0.665543  3 C  pz                25     -0.534141  2 C  d -1       
    67     -0.531152  8 H  pz                23     -0.508030  2 C  pz         
    72     -0.488152  9 H  pz                13      0.410631  1 C  d  1       
    39     -0.370146  3 C  d -1              48      0.288004  5 H  s          
    53     -0.288004  6 H  s                 27      0.246930  2 C  d  1       

 Vector   50  Occ=0.000000D+00  E= 1.550264D+00  Symmetry=a'
              MO Center= -3.1D-01, -3.1D-01,  1.5D-14, r^2= 3.0D+00
   Bfn.  Coefficient  Atom+Function         Bfn.  Coefficient  Atom+Function  
  ----- ------------  ---------------      ----- ------------  ---------------
    22      1.335970  2 C  py                 7     -1.142326  1 C  px         
    21      1.127842  2 C  px                31     -0.860634  3 C  s          
    30     -0.695904  3 C  s                 17      0.638213  2 C  s          
    36      0.459325  3 C  py                61     -0.423592  7 H  py         
    46     -0.384036  4 H  py                 3      0.361429  1 C  s          

 Vector   51  Occ=0.000000D+00  E= 1.569319D+00  Symmetry=a'
              MO Center= -5.1D-02, -6.2D-02,  3.0D-13, r^2= 3.3D+00
   Bfn.  Coefficient  Atom+Function         Bfn.  Coefficient  Atom+Function  
  ----- ------------  ---------------      ----- ------------  ---------------
     3      1.860210  1 C  s                 22      1.562011  2 C  py         
    17     -1.153123  2 C  s                 35      0.967061  3 C  px         
    21     -0.891600  2 C  px                16      0.832061  2 C  s          
     8      0.747017  1 C  py                64     -0.549907  8 H  s          
    48     -0.446214  5 H  s                 53     -0.446214  6 H  s          

 Vector   52  Occ=0.000000D+00  E= 1.571522D+00  Symmetry=a"
              MO Center= -1.5D-02, -8.8D-01, -3.3D-13, r^2= 2.9D+00
   Bfn.  Coefficient  Atom+Function         Bfn.  Coefficient  Atom+Function  
  ----- ------------  ---------------      ----- ------------  ---------------
     9      1.357755  1 C  pz                23     -0.691856  2 C  pz         
    48     -0.614198  5 H  s                 53      0.614198  6 H  s          
    13     -0.566058  1 C  d  1              62      0.560850  7 H  pz         
    47     -0.340397  4 H  pz                52     -0.333811  5 H  pz         
    57     -0.333811  6 H  pz                37      0.258934  3 C  pz         

 Vector   53  Occ=0.000000D+00  E= 1.607861D+00  Symmetry=a'
              MO Center=  1.7D-01, -2.5D-01,  2.5D-15, r^2= 3.6D+00
   Bfn.  Coefficient  Atom+Function         Bfn.  Coefficient  Atom+Function  
  ----- ------------  ---------------      ----- ------------  ---------------
     3      0.909074  1 C  s                 35      0.870269  3 C  px         
     7     -0.821495  1 C  px                16      0.775829  2 C  s          
    31     -0.714795  3 C  s                 22      0.676470  2 C  py         
    43     -0.513587  4 H  s                 36      0.488755  3 C  py         
    45      0.407466  4 H  px                40      0.382401  3 C  d  0       

 Vector   54  Occ=0.000000D+00  E= 1.648783D+00  Symmetry=a"
              MO Center= -4.3D-01,  2.7D-01, -3.2D-16, r^2= 3.4D+00
   Bfn.  Coefficient  Atom+Function         Bfn.  Coefficient  Atom+Function  
  ----- ------------  ---------------      ----- ------------  ---------------
     9      0.824813  1 C  pz                62     -0.664521  7 H  pz         
    72     -0.604803  9 H  pz                27      0.555738  2 C  d  1       
    47     -0.403892  4 H  pz                41      0.341556  3 C  d  1       
    39      0.319415  3 C  d -1              52     -0.260858  5 H  pz         
    57     -0.260858  6 H  pz                67      0.224911  8 H  pz         

 Vector   55  Occ=0.000000D+00  E= 1.667981D+00  Symmetry=a'
              MO Center=  1.5D-01, -6.6D-01,  5.1D-15, r^2= 3.1D+00
   Bfn.  Coefficient  Atom+Function         Bfn.  Coefficient  Atom+Function  
  ----- ------------  ---------------      ----- ------------  ---------------
     3      2.085506  1 C  s                 17     -1.893486  2 C  s          
     8      1.871007  1 C  py                22      1.138518  2 C  py         
     7     -0.703917  1 C  px                31     -0.665099  3 C  s          
    36      0.619756  3 C  py                19      0.598845  2 C  py         
    10     -0.522531  1 C  d -2              26      0.445345  2 C  d  0       

 Vector   56  Occ=0.000000D+00  E= 1.694037D+00  Symmetry=a"
              MO Center=  4.4D-01,  4.9D-01,  6.6D-15, r^2= 3.2D+00
   Bfn.  Coefficient  Atom+Function         Bfn.  Coefficient  Atom+Function  
  ----- ------------  ---------------      ----- ------------  ---------------
    67      0.704714  8 H  pz                39     -0.545315  3 C  d -1       
    41      0.524678  3 C  d  1               9      0.455100  1 C  pz         
    13      0.418058  1 C  d  1              72      0.413652  9 H  pz         
    11      0.305486  1 C  d -1              47     -0.299579  4 H  pz         
    49     -0.296916  5 H  s                 54      0.296916  6 H  s          

 Vector   57  Occ=0.000000D+00  E= 1.749359D+00  Symmetry=a'
              MO Center= -7.5D-02, -4.0D-01,  9.0D-16, r^2= 3.3D+00
   Bfn.  Coefficient  Atom+Function         Bfn.  Coefficient  Atom+Function  
  ----- ------------  ---------------      ----- ------------  ---------------
     3      2.568470  1 C  s                 22      2.260912  2 C  py         
    31     -2.083280  3 C  s                  8      1.023122  1 C  py         
    36      0.855017  3 C  py                 7     -0.604290  1 C  px         
    35      0.520969  3 C  px                17     -0.474089  2 C  s          
    43     -0.474238  4 H  s                 61     -0.461341  7 H  py         

 Vector   58  Occ=0.000000D+00  E= 1.879314D+00  Symmetry=a'
              MO Center= -3.7D-02,  2.0D-01, -5.8D-16, r^2= 3.2D+00
   Bfn.  Coefficient  Atom+Function         Bfn.  Coefficient  Atom+Function  
  ----- ------------  ---------------      ----- ------------  ---------------
    31     -4.037472  3 C  s                 17      3.808572  2 C  s          
    22      2.025253  2 C  py                36      1.831684  3 C  py         
    35      1.201181  3 C  px                40      0.762410  3 C  d  0       
    21      0.751321  2 C  px                 3      0.709714  1 C  s          
    19      0.682415  2 C  py                26     -0.598505  2 C  d  0       

 Vector   59  Occ=0.000000D+00  E= 1.909855D+00  Symmetry=a"
              MO Center= -8.1D-02,  5.0D-01,  2.1D-14, r^2= 3.1D+00
   Bfn.  Coefficient  Atom+Function         Bfn.  Coefficient  Atom+Function  
  ----- ------------  ---------------      ----- ------------  ---------------
    39      0.729979  3 C  d -1              72     -0.640371  9 H  pz         
    27     -0.629746  2 C  d  1              62      0.493539  7 H  pz         
    41      0.452956  3 C  d  1              11      0.437132  1 C  d -1       
    67      0.395665  8 H  pz                47      0.387367  4 H  pz         
    51     -0.306472  5 H  py                56      0.306472  6 H  py         

 Vector   60  Occ=0.000000D+00  E= 1.949719D+00  Symmetry=a'
              MO Center=  1.2D-01, -7.3D-01, -1.1D-14, r^2= 3.3D+00
   Bfn.  Coefficient  Atom+Function         Bfn.  Coefficient  Atom+Function  
  ----- ------------  ---------------      ----- ------------  ---------------
    31      1.535596  3 C  s                 17     -1.327737  2 C  s          
    21     -0.897888  2 C  px                36     -0.837145  3 C  py         
     3      0.598010  1 C  s                 14     -0.534473  1 C  d  2       
    10     -0.493625  1 C  d -2              12     -0.491499  1 C  d  0       
    46      0.464838  4 H  py                51      0.459014  5 H  py         

 Vector   61  Occ=0.000000D+00  E= 1.968901D+00  Symmetry=a"
              MO Center=  1.1D-01, -2.2D-01,  2.2D-14, r^2= 3.0D+00
   Bfn.  Coefficient  Atom+Function         Bfn.  Coefficient  Atom+Function  
  ----- ------------  ---------------      ----- ------------  ---------------
    25      0.916037  2 C  d -1               9      0.790037  1 C  pz         
    41     -0.654008  3 C  d  1              49     -0.514982  5 H  s          
    54      0.514982  6 H  s                 39      0.480106  3 C  d -1       
    47     -0.453339  4 H  pz                 6      0.429465  1 C  pz         
    67     -0.421982  8 H  pz                50      0.417613  5 H  px         

 Vector   62  Occ=0.000000D+00  E= 1.980828D+00  Symmetry=a'
              MO Center= -1.2D-01, -6.9D-01, -4.3D-14, r^2= 3.0D+00
   Bfn.  Coefficient  Atom+Function         Bfn.  Coefficient  Atom+Function  
  ----- ------------  ---------------      ----- ------------  ---------------
     3      2.061962  1 C  s                 22      1.678317  2 C  py         
    17     -1.283491  2 C  s                  7     -1.174104  1 C  px         
    31     -0.734668  3 C  s                 35      0.697004  3 C  px         
    44     -0.628832  4 H  s                 61     -0.593437  7 H  py         
    50      0.443412  5 H  px                55      0.443412  6 H  px         

 Vector   63  Occ=0.000000D+00  E= 2.138400D+00  Symmetry=a'
              MO Center= -8.1D-02,  7.7D-01, -4.5D-15, r^2= 2.8D+00
   Bfn.  Coefficient  Atom+Function         Bfn.  Coefficient  Atom+Function  
  ----- ------------  ---------------      ----- ------------  ---------------
    17      0.947635  2 C  s                 31     -0.844045  3 C  s          
    32      0.786020  3 C  px                35      0.769430  3 C  px         
    65      0.716984  8 H  px                60     -0.685265  7 H  px         
    16      0.621315  2 C  s                 69      0.560301  9 H  s          
    22      0.545077  2 C  py                64     -0.489385  8 H  s          

 Vector   64  Occ=0.000000D+00  E= 2.200573D+00  Symmetry=a"
              MO Center= -6.7D-03, -8.6D-01, -1.7D-14, r^2= 2.5D+00
   Bfn.  Coefficient  Atom+Function         Bfn.  Coefficient  Atom+Function  
  ----- ------------  ---------------      ----- ------------  ---------------
    11      1.117549  1 C  d -1              47      0.682791  4 H  pz         
    27      0.605478  2 C  d  1              51     -0.537585  5 H  py         
    56      0.537585  6 H  py                13     -0.452436  1 C  d  1       
    62     -0.401612  7 H  pz                41     -0.336246  3 C  d  1       
    25      0.326495  2 C  d -1              72      0.240415  9 H  pz         

 Vector   65  Occ=0.000000D+00  E= 2.207983D+00  Symmetry=a'
              MO Center=  4.6D-01,  1.2D+00, -6.7D-15, r^2= 2.4D+00
   Bfn.  Coefficient  Atom+Function         Bfn.  Coefficient  Atom+Function  
  ----- ------------  ---------------      ----- ------------  ---------------
    17      1.862086  2 C  s                 70     -0.802317  9 H  px         
    36      0.767923  3 C  py                65      0.730100  8 H  px         
    30      0.657099  3 C  s                 38      0.650569  3 C  d -2       
    16     -0.637574  2 C  s                 66     -0.593216  8 H  py         
    35      0.545196  3 C  px                21      0.541344  2 C  px         

 Vector   66  Occ=0.000000D+00  E= 2.337890D+00  Symmetry=a'
              MO Center= -1.6D-01, -2.2D-01,  3.3D-14, r^2= 3.3D+00
   Bfn.  Coefficient  Atom+Function         Bfn.  Coefficient  Atom+Function  
  ----- ------------  ---------------      ----- ------------  ---------------
     2      0.895835  1 C  s                 17      0.804739  2 C  s          
    60     -0.784863  7 H  px                58     -0.717836  7 H  s          
    33      0.626561  3 C  py                16      0.590619  2 C  s          
    24      0.581041  2 C  d -2              65     -0.551885  8 H  px         
    35     -0.544010  3 C  px                45     -0.532032  4 H  px         

 Vector   67  Occ=0.000000D+00  E= 2.354779D+00  Symmetry=a'
              MO Center=  1.3D-01, -1.1D+00,  3.8D-13, r^2= 2.5D+00
   Bfn.  Coefficient  Atom+Function         Bfn.  Coefficient  Atom+Function  
  ----- ------------  ---------------      ----- ------------  ---------------
     3      1.294540  1 C  s                 17     -1.047246  2 C  s          
     2      0.938554  1 C  s                 31      0.847991  3 C  s          
    52      0.789543  5 H  pz                57     -0.789543  6 H  pz         
    14      0.783977  1 C  d  2              48     -0.708870  5 H  s          
    53     -0.708870  6 H  s                 24     -0.657301  2 C  d -2       

 Vector   68  Occ=0.000000D+00  E= 2.383280D+00  Symmetry=a'
              MO Center= -9.5D-02, -9.3D-01,  2.4D-13, r^2= 2.6D+00
   Bfn.  Coefficient  Atom+Function         Bfn.  Coefficient  Atom+Function  
  ----- ------------  ---------------      ----- ------------  ---------------
    17      1.612163  2 C  s                 31     -1.524239  3 C  s          
    43      1.136742  4 H  s                 12      1.081985  1 C  d  0       
     4      1.026731  1 C  px                21      0.983392  2 C  px         
    46      0.889295  4 H  py                 7      0.860066  1 C  px         
    44      0.653216  4 H  s                 28     -0.633321  2 C  d  2       

 Vector   69  Occ=0.000000D+00  E= 2.417664D+00  Symmetry=a"
              MO Center=  3.8D-01, -1.2D+00, -5.9D-13, r^2= 1.7D+00
   Bfn.  Coefficient  Atom+Function         Bfn.  Coefficient  Atom+Function  
  ----- ------------  ---------------      ----- ------------  ---------------
    13      1.439415  1 C  d  1              48      1.298122  5 H  s          
    53     -1.298122  6 H  s                  6     -1.265798  1 C  pz         
     9     -1.102644  1 C  pz                52     -0.955004  5 H  pz         
    57     -0.955004  6 H  pz                49      0.641146  5 H  s          
    54     -0.641146  6 H  s                 50     -0.626210  5 H  px         

 Vector   70  Occ=0.000000D+00  E= 2.443331D+00  Symmetry=a'
              MO Center= -1.4D-01,  3.0D-01, -3.2D-14, r^2= 3.7D+00
   Bfn.  Coefficient  Atom+Function         Bfn.  Coefficient  Atom+Function  
  ----- ------------  ---------------      ----- ------------  ---------------
    31      1.486880  3 C  s                 17     -1.283525  2 C  s          
    68     -1.156326  9 H  s                 71      1.054957  9 H  py         
    43      0.925757  4 H  s                 21     -0.860876  2 C  px         
    10     -0.844663  1 C  d -2              30      0.755735  3 C  s          
    45      0.733661  4 H  px                38     -0.728851  3 C  d -2       

 Vector   71  Occ=0.000000D+00  E= 2.649551D+00  Symmetry=a'
              MO Center=  3.9D-02,  8.6D-01,  3.8D-15, r^2= 2.5D+00
   Bfn.  Coefficient  Atom+Function         Bfn.  Coefficient  Atom+Function  
  ----- ------------  ---------------      ----- ------------  ---------------
    31      3.089215  3 C  s                 17     -2.797366  2 C  s          
    63     -1.480400  8 H  s                 42      1.146304  3 C  d  2       
    65      1.111098  8 H  px                24      0.897809  2 C  d -2       
    22     -0.766902  2 C  py                32      0.720580  3 C  px         
    58      0.691646  7 H  s                 40     -0.663812  3 C  d  0       

 Vector   72  Occ=0.000000D+00  E= 2.952189D+00  Symmetry=a'
              MO Center= -1.0D-01,  5.0D-01, -7.6D-16, r^2= 2.3D+00
   Bfn.  Coefficient  Atom+Function         Bfn.  Coefficient  Atom+Function  
  ----- ------------  ---------------      ----- ------------  ---------------
    28      1.739618  2 C  d  2              42      1.491091  3 C  d  2       
    58     -1.381950  7 H  s                 68      1.265148  9 H  s          
    38      1.050327  3 C  d -2              60     -0.888789  7 H  px         
    63     -0.884473  8 H  s                 17      0.774439  2 C  s          
    10     -0.710036  1 C  d -2              71     -0.596272  9 H  py         


 center of mass
 --------------
 x =  -0.02017797 y =   0.04691490 z =   0.00000000

 moments of inertia (a.u.)
 ------------------
         190.841876716380           0.000000000117           0.000000000000
           0.000000000117          39.610779569600           0.000000000000
           0.000000000000           0.000000000000         218.969328834500

     Multipole analysis of the density
     ---------------------------------

     L   x y z        total         alpha         beta         nuclear
     -   - - -        -----         -----         ----         -------
     0   0 0 0     -0.000000    -12.000000    -12.000000     24.000000

     1   1 0 0      0.001891      0.000946      0.000946      0.000000
     1   0 1 0     -0.157664     -0.078832     -0.078832     -0.000000
     1   0 0 1     -0.000000     -0.000000     -0.000000      0.000000

     2   2 0 0    -14.049881    -20.655934    -20.655934     27.261986
     2   1 1 0      0.049178      0.186013      0.186013     -0.322849
     2   1 0 1      0.000000      0.000000      0.000000      0.000000
     2   0 2 0    -14.390537    -66.171471    -66.171471    117.952404
     2   0 1 1     -0.000000     -0.000000     -0.000000      0.000000
     2   0 0 2    -15.802841    -10.749963    -10.749963      5.697084


            General Information
            -------------------
          SCF calculation type: DFT
          Wavefunction type:  closed shell.
          No. of atoms     :     9
          No. of electrons :    24
           Alpha electrons :    12
            Beta electrons :    12
          Charge           :     0
          Spin multiplicity:     1
          Use of symmetry is: on ; symmetry adaption is: on 
          Maximum number of iterations:  50
          This is a Direct SCF calculation.
          AO basis - number of functions:    72
                     number of shells:    36
          Convergence on energy requested:  1.00D-08
          Convergence on density requested:  1.00D-07
          Convergence on gradient requested:  1.00D-06

              XC Information
              --------------
          PerdewBurkeErnzerhof Exchange Functional  1.000          
            Perdew 1991 LDA Correlation Functional  1.000 local    
           PerdewBurkeErnz. Correlation Functional  1.000 non-local

             Grid Information
             ----------------
          Grid used for XC integration:  medium    
          Radial quadrature: Mura-Knowles        
          Angular quadrature: Lebedev. 
          Tag              B.-S. Rad. Rad. Pts. Rad. Cut. Ang. Pts.
          ---              ---------- --------- --------- ---------
          C                   0.70       49          10.0       434
          H                   0.35       45          11.0       434
          Grid pruning is: on 
          Number of quadrature shells:   372
          Spatial weights used:  Erf1

          Convergence Information
          -----------------------
          Convergence aids based upon iterative change in 
          total energy or number of iterations. 
          Levelshifting, if invoked, occurs when the 
          HOMO/LUMO gap drops below (HL_TOL):  1.00D-02
          DIIS, if invoked, will attempt to extrapolate 
          using up to (NFOCK): 10 stored Fock matrices.

                    Damping( 0%)  Levelshifting(0.5)       DIIS
                  --------------- ------------------- ---------------
          dE  on:    start            ASAP                start   
          dE off:    2 iters         50 iters            50 iters 


      Screening Tolerance Information
      -------------------------------
          Density screening/tol_rho:  1.00D-11
          AO Gaussian exp screening on grid/accAOfunc:  18
          CD Gaussian exp screening on grid/accCDfunc:  20
          XC Gaussian exp screening on grid/accXCfunc:  20
          Schwarz screening/accCoul:  1.00D-09

  texas integral default override: limxmem =             50000000
  texas integral default override: limxmem =             50000000


                            NWChem DFT Gradient Module
                            --------------------------



  charge          =   0.00
  wavefunction    = closed shell

  Using symmetry
  texas integral default override: limxmem =             50000000
  texas integral default override: limxmem =             50000000


                         DFT ENERGY GRADIENTS

    atom               coordinates                        gradient
                 x          y          z           x          y          z
   1 C       0.326169  -2.306865   0.000000    0.008944   0.000975   0.000000
   2 C      -0.890352   0.237840   0.000000   -0.007767  -0.004180   0.000000
   3 C       0.421665   2.400390   0.000000    0.006837   0.000754   0.000000
   4 H      -1.123122  -3.782576   0.000000    0.003462   0.008643   0.000000
   5 H       1.492793  -2.565477   1.687762   -0.007377   0.002831  -0.006346
   6 H       1.492793  -2.565477  -1.687762   -0.007377   0.002831   0.006346
   7 H      -2.945248   0.304541   0.000000    0.010604  -0.001349   0.000000
   8 H       2.473945   2.407483   0.000000   -0.011129  -0.000521   0.000000
   9 H      -0.536049   4.213319   0.000000    0.003800  -0.009984   0.000000

                 ----------------------------------------
                 |  Time  |  1-e(secs)   |  2-e(secs)   |
                 ----------------------------------------
                 |  CPU   |       0.00   |       0.29   |
                 ----------------------------------------
                 |  WALL  |       0.00   |       0.29   |
                 ----------------------------------------
  no constraints, skipping    0.0000000000000000     

@ Step       Energy      Delta E   Gmax     Grms     Xrms     Xmax   Walltime
@ ---- ---------------- -------- -------- -------- -------- -------- --------
@    0    -117.73019218  0.0D+00  0.01480  0.00559  0.00000  0.00000      5.2
                                                                    



[...]

 Vector   48  Occ=0.000000D+00  E= 1.440136D+00
              MO Center= -1.6D-01,  2.6D-01,  9.4D-13, r^2= 2.8D+00
   Bfn.  Coefficient  Atom+Function         Bfn.  Coefficient  Atom+Function  
  ----- ------------  ---------------      ----- ------------  ---------------
    22      2.014575  2 C  py                31     -1.088089  3 C  s          
     3      1.065964  1 C  s                 35      0.933402  3 C  px         
    21     -0.756960  2 C  px                36     -0.639401  3 C  py         
     7     -0.509883  1 C  px                58     -0.500380  7 H  s          
    69      0.458485  9 H  s                 43     -0.447208  4 H  s          

 Vector   49  Occ=0.000000D+00  E= 1.487039D+00
              MO Center=  1.7D-01,  6.0D-01, -7.7D-13, r^2= 3.2D+00
   Bfn.  Coefficient  Atom+Function         Bfn.  Coefficient  Atom+Function  
  ----- ------------  ---------------      ----- ------------  ---------------
    37      0.667317  3 C  pz                23     -0.526192  2 C  pz         
    25     -0.507645  2 C  d -1              67     -0.504296  8 H  pz         
    72     -0.494011  9 H  pz                13      0.424346  1 C  d  1       
    39     -0.371205  3 C  d -1              48      0.286028  5 H  s          
    53     -0.286028  6 H  s                 27      0.263060  2 C  d  1       

 Vector   50  Occ=0.000000D+00  E= 1.538543D+00
              MO Center= -3.5D-01, -3.7D-01,  2.3D-12, r^2= 2.9D+00
   Bfn.  Coefficient  Atom+Function         Bfn.  Coefficient  Atom+Function  
  ----- ------------  ---------------      ----- ------------  ---------------
    22      1.475994  2 C  py                 7     -1.115681  1 C  px         
    21      1.037260  2 C  px                31     -0.825694  3 C  s          
    30     -0.728391  3 C  s                  3      0.513836  1 C  s          
    36      0.449285  3 C  py                17      0.446850  2 C  s          
    46     -0.427588  4 H  py                61     -0.411527  7 H  py         

 Vector   51  Occ=0.000000D+00  E= 1.550231D+00
              MO Center=  4.4D-02,  9.3D-02,  7.2D-13, r^2= 3.3D+00
   Bfn.  Coefficient  Atom+Function         Bfn.  Coefficient  Atom+Function  
  ----- ------------  ---------------      ----- ------------  ---------------
     3      1.816381  1 C  s                 22      1.363737  2 C  py         
    17     -1.074229  2 C  s                 35      1.049887  3 C  px         
    16      0.960385  2 C  s                 21     -0.960483  2 C  px         
    64     -0.556219  8 H  s                  8      0.549765  1 C  py         
    12      0.464867  1 C  d  0              48     -0.450987  5 H  s          

 Vector   52  Occ=0.000000D+00  E= 1.570746D+00
              MO Center=  6.7D-04, -8.2D-01, -1.2D-12, r^2= 3.0D+00
   Bfn.  Coefficient  Atom+Function         Bfn.  Coefficient  Atom+Function  
  ----- ------------  ---------------      ----- ------------  ---------------
     9      1.223793  1 C  pz                23     -0.671569  2 C  pz         
    62      0.581311  7 H  pz                48     -0.575860  5 H  s          
    53      0.575860  6 H  s                 13     -0.569260  1 C  d  1       
    52     -0.348038  5 H  pz                57     -0.348038  6 H  pz         
    67     -0.285150  8 H  pz                47     -0.271513  4 H  pz         

 Vector   53  Occ=0.000000D+00  E= 1.589627D+00
              MO Center=  1.7D-01, -6.3D-01,  7.1D-13, r^2= 3.5D+00
   Bfn.  Coefficient  Atom+Function         Bfn.  Coefficient  Atom+Function  
  ----- ------------  ---------------      ----- ------------  ---------------
     7      0.924626  1 C  px                31      0.927847  3 C  s          
    35     -0.786538  3 C  px                43      0.566615  4 H  s          
    16     -0.563182  2 C  s                  8      0.540478  1 C  py         
    22     -0.533060  2 C  py                17     -0.499884  2 C  s          
    36     -0.444523  3 C  py                45     -0.446015  4 H  px         

 Vector   54  Occ=0.000000D+00  E= 1.637388D+00
              MO Center= -3.7D-01,  1.5D-01,  7.0D-13, r^2= 3.5D+00
   Bfn.  Coefficient  Atom+Function         Bfn.  Coefficient  Atom+Function  
  ----- ------------  ---------------      ----- ------------  ---------------
     9      0.826511  1 C  pz                62     -0.639484  7 H  pz         
    72     -0.554166  9 H  pz                27      0.538343  2 C  d  1       
    47     -0.407281  4 H  pz                41      0.354286  3 C  d  1       
    52     -0.291735  5 H  pz                57     -0.291735  6 H  pz         
    39      0.280520  3 C  d -1              67      0.259662  8 H  pz         

 Vector   55  Occ=0.000000D+00  E= 1.657143D+00
              MO Center=  6.6D-02, -3.8D-01, -1.1D-11, r^2= 3.5D+00
   Bfn.  Coefficient  Atom+Function         Bfn.  Coefficient  Atom+Function  
  ----- ------------  ---------------      ----- ------------  ---------------
    17     -1.813219  2 C  s                  3      1.740452  1 C  s          
     8      1.731999  1 C  py                22      0.853907  2 C  py         
    19      0.584042  2 C  py                 7     -0.540797  1 C  px         
    10     -0.523715  1 C  d -2              36      0.493659  3 C  py         
    21     -0.470160  2 C  px                14     -0.409334  1 C  d  2       

 Vector   56  Occ=0.000000D+00  E= 1.677004D+00
              MO Center=  4.0D-01,  5.0D-01,  1.2D-11, r^2= 3.4D+00
   Bfn.  Coefficient  Atom+Function         Bfn.  Coefficient  Atom+Function  
  ----- ------------  ---------------      ----- ------------  ---------------
    67      0.671506  8 H  pz                39     -0.536668  3 C  d -1       
     9      0.475163  1 C  pz                41      0.459895  3 C  d  1       
    72      0.454962  9 H  pz                13      0.387246  1 C  d  1       
    11      0.302072  1 C  d -1              47     -0.297806  4 H  pz         
    49     -0.296265  5 H  s                 54      0.296265  6 H  s          

 Vector   57  Occ=0.000000D+00  E= 1.729853D+00
              MO Center= -1.2D-01, -4.6D-01, -3.9D-13, r^2= 3.3D+00
   Bfn.  Coefficient  Atom+Function         Bfn.  Coefficient  Atom+Function  
  ----- ------------  ---------------      ----- ------------  ---------------
     3      3.158332  1 C  s                 22      2.746847  2 C  py         
    31     -2.195555  3 C  s                  8      1.386060  1 C  py         
    36      0.915539  3 C  py                17     -0.870304  2 C  s          
     7     -0.791702  1 C  px                35      0.656286  3 C  px         
    61     -0.534100  7 H  py                43     -0.468374  4 H  s          

 Vector   58  Occ=0.000000D+00  E= 1.864934D+00
              MO Center= -5.4D-02,  3.7D-01,  4.5D-12, r^2= 3.2D+00
   Bfn.  Coefficient  Atom+Function         Bfn.  Coefficient  Atom+Function  
  ----- ------------  ---------------      ----- ------------  ---------------
    31     -4.103228  3 C  s                 17      3.946638  2 C  s          
    22      2.010441  2 C  py                36      1.930156  3 C  py         
    35      1.157765  3 C  px                21      0.842557  2 C  px         
    40      0.772055  3 C  d  0              19      0.643302  2 C  py         
    26     -0.637741  2 C  d  0              33      0.616581  3 C  py         

 Vector   59  Occ=0.000000D+00  E= 1.887710D+00
              MO Center= -5.6D-02,  5.0D-01, -1.7D-12, r^2= 3.2D+00
   Bfn.  Coefficient  Atom+Function         Bfn.  Coefficient  Atom+Function  
  ----- ------------  ---------------      ----- ------------  ---------------
    39      0.654777  3 C  d -1              72     -0.625368  9 H  pz         
    27     -0.581256  2 C  d  1              41      0.523151  3 C  d  1       
    62      0.459906  7 H  pz                67      0.437282  8 H  pz         
    47      0.434624  4 H  pz                11      0.407553  1 C  d -1       
    51     -0.280318  5 H  py                56      0.280318  6 H  py         

 Vector   60  Occ=0.000000D+00  E= 1.933149D+00
              MO Center=  2.8D-02, -5.6D-01, -5.8D-12, r^2= 3.5D+00
   Bfn.  Coefficient  Atom+Function         Bfn.  Coefficient  Atom+Function  
  ----- ------------  ---------------      ----- ------------  ---------------
    31      1.410659  3 C  s                 22     -1.079694  2 C  py         
     7      0.912498  1 C  px                12     -0.591857  1 C  d  0       
    21     -0.577755  2 C  px                52      0.480741  5 H  pz         
    57     -0.480741  6 H  pz                36     -0.458837  3 C  py         
     3     -0.455936  1 C  s                 59     -0.441882  7 H  s          

 Vector   61  Occ=0.000000D+00  E= 1.945789D+00
              MO Center=  8.6D-02, -1.3D-01,  9.6D-12, r^2= 3.0D+00
   Bfn.  Coefficient  Atom+Function         Bfn.  Coefficient  Atom+Function  
  ----- ------------  ---------------      ----- ------------  ---------------
    25      0.915390  2 C  d -1               9      0.739122  1 C  pz         
    39      0.598914  3 C  d -1              41     -0.593228  3 C  d  1       
    49     -0.483784  5 H  s                 54      0.483784  6 H  s          
    47     -0.412557  4 H  pz                 6      0.400118  1 C  pz         
    50      0.395278  5 H  px                55     -0.395278  6 H  px         

 Vector   62  Occ=0.000000D+00  E= 1.968567D+00
              MO Center=  2.2D-02, -1.1D+00,  5.9D-13, r^2= 2.7D+00
   Bfn.  Coefficient  Atom+Function         Bfn.  Coefficient  Atom+Function  
  ----- ------------  ---------------      ----- ------------  ---------------
     3      1.876938  1 C  s                 22      1.308083  2 C  py         
    17     -1.145507  2 C  s                  7     -0.790749  1 C  px         
    35      0.667214  3 C  px                14     -0.642475  1 C  d  2       
    51      0.551170  5 H  py                56      0.551170  6 H  py         
    10     -0.545273  1 C  d -2              44     -0.540380  4 H  s          

 Vector   63  Occ=0.000000D+00  E= 2.112562D+00
              MO Center= -4.5D-02,  7.3D-01,  7.4D-14, r^2= 2.9D+00
   Bfn.  Coefficient  Atom+Function         Bfn.  Coefficient  Atom+Function  
  ----- ------------  ---------------      ----- ------------  ---------------
    17      1.180252  2 C  s                 31     -0.838180  3 C  s          
    35      0.816639  3 C  px                32      0.799881  3 C  px         
    65      0.763758  8 H  px                60     -0.689968  7 H  px         
    22      0.548714  2 C  py                16      0.526759  2 C  s          
    64     -0.527829  8 H  s                 69      0.525316  9 H  s          

 Vector   64  Occ=0.000000D+00  E= 2.172634D+00
              MO Center= -9.0D-03, -8.5D-01, -1.3D-11, r^2= 2.6D+00
   Bfn.  Coefficient  Atom+Function         Bfn.  Coefficient  Atom+Function  
  ----- ------------  ---------------      ----- ------------  ---------------
    11      1.069826  1 C  d -1              47      0.660137  4 H  pz         
    27      0.580287  2 C  d  1              51     -0.520959  5 H  py         
    56      0.520959  6 H  py                13     -0.466262  1 C  d  1       
    62     -0.391244  7 H  pz                25      0.355139  2 C  d -1       
    41     -0.353357  3 C  d  1              72      0.237377  9 H  pz         

 Vector   65  Occ=0.000000D+00  E= 2.184129D+00
              MO Center=  4.3D-01,  1.3D+00,  4.0D-12, r^2= 2.4D+00
   Bfn.  Coefficient  Atom+Function         Bfn.  Coefficient  Atom+Function  
  ----- ------------  ---------------      ----- ------------  ---------------
    17      1.754199  2 C  s                 70     -0.818673  9 H  px         
    36      0.761685  3 C  py                16     -0.686553  2 C  s          
    65      0.678980  8 H  px                38      0.656250  3 C  d -2       
    66     -0.590923  8 H  py                30      0.575259  3 C  s          
    21      0.519062  2 C  px                35      0.482869  3 C  px         

 Vector   66  Occ=0.000000D+00  E= 2.295019D+00
              MO Center=  2.3D-01, -7.7D-01, -1.3D-11, r^2= 3.1D+00
   Bfn.  Coefficient  Atom+Function         Bfn.  Coefficient  Atom+Function  
  ----- ------------  ---------------      ----- ------------  ---------------
     2      1.056000  1 C  s                  3      0.642960  1 C  s          
    48     -0.610795  5 H  s                 50      0.610029  5 H  px         
    53     -0.610795  6 H  s                 55      0.610029  6 H  px         
    12      0.571890  1 C  d  0              17      0.541757  2 C  s          
    52      0.533678  5 H  pz                57     -0.533678  6 H  pz         

 Vector   67  Occ=0.000000D+00  E= 2.328954D+00
              MO Center= -1.5D-01, -4.3D-01,  1.2D-11, r^2= 3.2D+00
   Bfn.  Coefficient  Atom+Function         Bfn.  Coefficient  Atom+Function  
  ----- ------------  ---------------      ----- ------------  ---------------
     3      1.070018  1 C  s                 17     -1.068412  2 C  s          
    60      0.816876  7 H  px                14      0.746801  1 C  d  2       
    58      0.740845  7 H  s                 24     -0.651733  2 C  d -2       
    52      0.628598  5 H  pz                57     -0.628598  6 H  pz         
    33     -0.539450  3 C  py                48     -0.534721  5 H  s          

 Vector   68  Occ=0.000000D+00  E= 2.348473D+00
              MO Center= -2.7D-01, -9.4D-01,  1.2D-11, r^2= 2.7D+00
   Bfn.  Coefficient  Atom+Function         Bfn.  Coefficient  Atom+Function  
  ----- ------------  ---------------      ----- ------------  ---------------
    17      1.702256  2 C  s                 31     -1.634371  3 C  s          
    43      1.174146  4 H  s                 21      0.993710  2 C  px         
    46      0.996386  4 H  py                12      0.937235  1 C  d  0       
     4      0.908156  1 C  px                 3     -0.824434  1 C  s          
     7      0.805032  1 C  px                44      0.713731  4 H  s          

 Vector   69  Occ=0.000000D+00  E= 2.397166D+00
              MO Center=  3.8D-01, -1.2D+00, -2.1D-11, r^2= 1.8D+00
   Bfn.  Coefficient  Atom+Function         Bfn.  Coefficient  Atom+Function  
  ----- ------------  ---------------      ----- ------------  ---------------
    13      1.423944  1 C  d  1              48      1.253860  5 H  s          
    53     -1.253860  6 H  s                  6     -1.190401  1 C  pz         
     9     -1.121561  1 C  pz                52     -0.914422  5 H  pz         
    57     -0.914422  6 H  pz                50     -0.662886  5 H  px         
    55      0.662886  6 H  px                49      0.644214  5 H  s          

 Vector   70  Occ=0.000000D+00  E= 2.415127D+00
              MO Center= -6.2D-02,  2.9D-01,  1.2D-11, r^2= 3.8D+00
   Bfn.  Coefficient  Atom+Function         Bfn.  Coefficient  Atom+Function  
  ----- ------------  ---------------      ----- ------------  ---------------
    31     -1.797231  3 C  s                 17      1.711228  2 C  s          
    68      1.091158  9 H  s                 71     -1.021674  9 H  py         
    43     -0.866785  4 H  s                 10      0.834109  1 C  d -2       
    21      0.820237  2 C  px                30     -0.766027  3 C  s          
     8     -0.733858  1 C  py                38      0.700372  3 C  d -2       

 Vector   71  Occ=0.000000D+00  E= 2.618128D+00
              MO Center= -4.8D-03,  7.7D-01,  7.9D-13, r^2= 2.6D+00
   Bfn.  Coefficient  Atom+Function         Bfn.  Coefficient  Atom+Function  
  ----- ------------  ---------------      ----- ------------  ---------------
    31      2.913747  3 C  s                 17     -2.626744  2 C  s          
    63     -1.387430  8 H  s                 42      1.172089  3 C  d  2       
    65      1.062492  8 H  px                24      0.935424  2 C  d -2       
    22     -0.792595  2 C  py                32      0.692526  3 C  px         
    58      0.667779  7 H  s                 36     -0.627742  3 C  py         

 Vector   72  Occ=0.000000D+00  E= 2.906482D+00
              MO Center= -8.4D-02,  5.0D-01, -8.0D-13, r^2= 2.4D+00
   Bfn.  Coefficient  Atom+Function         Bfn.  Coefficient  Atom+Function  
  ----- ------------  ---------------      ----- ------------  ---------------
    28      1.684837  2 C  d  2              42      1.415660  3 C  d  2       
    58     -1.275006  7 H  s                 68      1.220056  9 H  s          
    38      1.073871  3 C  d -2              60     -0.844218  7 H  px         
    63     -0.829092  8 H  s                 10     -0.742415  1 C  d -2       
    17      0.703616  2 C  s                 71     -0.604636  9 H  py         


 center of mass
 --------------
 x =  -0.02407799 y =   0.05462903 z =   0.00000000

 moments of inertia (a.u.)
 ------------------
         197.784143020738          -0.169157961647           0.000000000000
          -0.169157961647          39.472524653504           0.000000000000
           0.000000000000           0.000000000000         225.816593168197

     Multipole analysis of the density
     ---------------------------------

     L   x y z        total         alpha         beta         nuclear
     -   - - -        -----         -----         ----         -------
     0   0 0 0     -0.000000    -12.000000    -12.000000     24.000000

     1   1 0 0      0.008450      0.041520      0.041520     -0.074591
     1   0 1 0     -0.156795     -0.152167     -0.152167      0.147539
     1   0 0 1      0.000000      0.000000      0.000000      0.000000

     2   2 0 0    -14.097945    -20.763673    -20.763673     27.429401
     2   1 1 0      0.007371      0.179829      0.179829     -0.352287
     2   1 0 1      0.000000      0.000000      0.000000      0.000000
     2   0 2 0    -14.250969    -68.413841    -68.413841    122.576713
     2   0 1 1      0.000000      0.000000      0.000000      0.000000
     2   0 0 2    -15.956878    -10.816252    -10.816252      5.675625

  texas integral default override: limxmem =             50000000
  texas integral default override: limxmem =             50000000

 HESSIAN: the one electron contributions are done in       0.0s

  texas integral default override: limxmem =             50000000
  texas integral default override: limxmem =             50000000
  texas integral default override: limxmem =             50000000

 HESSIAN: 2-el 1st deriv. term done in                     0.6s

  texas integral default override: limxmem =             50000000

 HESSIAN: 2-el 2nd deriv. term done in                     1.8s

  stpr_wrt_fd_from_sq: overwrite of existing file:./propene-dat.hess
 stpr_wrt_fd_dipole: overwrite of existing file./propene-dat.fd_ddipole

 HESSIAN: the two electron contributions are done in      11.7s

  texas integral default override: limxmem =             50000000
  texas integral default override: limxmem =             50000000
                                NWChem CPHF Module
                                ------------------


  texas integral default override: limxmem =             50000000
  scftype          =     RHF 
  nclosed          =       12
  nopen            =        0
  variables        =      720
  # of vectors     =       27
  tolerance        = 0.10D-03
  level shift      = 0.00D+00
  max iterations   =       50
  max subspace     =      270

 Grid integrated density:      24.000000359972
 Requested integration accuracy:   0.10E-13
 SCF residual:    3.8072052221505883E-006


Iterative solution of linear equations
  No. of variables      720
  No. of equations       27
  Maximum subspace      270
        Iterations       50
       Convergence  1.0D-04
        Start time     84.3


   iter   nsub   residual    time
   ----  ------  --------  ---------
