 argument  1 = h2o_ccpvdz.nw



============================== echo of input deck ==============================
echo

start h2o_ccpvdz_dat

geometry units au noautoz nocenter noautosym
  symmetry cs
  O   0.0               -0.143222342980786  0.0
  H1  1.638033502034240  1.136556880358410  0.0
  H2 -1.638033502034240  1.136556880358410  0.0
end

basis
  * library cc-pvdz
end

scf
  thresh 1.0e-10
  tol2e 1.0e-25
end

task scf gradient
================================================================================


                                         
                                         


             Northwest Computational Chemistry Package (NWChem) 7.0.1
             --------------------------------------------------------


                    Environmental Molecular Sciences Laboratory
                       Pacific Northwest National Laboratory
                                Richland, WA 99352

                              Copyright (c) 1994-2020
                       Pacific Northwest National Laboratory
                            Battelle Memorial Institute

             NWChem is an open-source computational chemistry package
                        distributed under the terms of the
                      Educational Community License (ECL) 2.0
             A copy of the license is included with this distribution
                              in the LICENSE.TXT file

                                  ACKNOWLEDGMENT
                                  --------------

            This software and its documentation were developed at the
            EMSL at Pacific Northwest National Laboratory, a multiprogram
            national laboratory, operated for the U.S. Department of Energy
            by Battelle under Contract Number DE-AC05-76RL01830. Support
            for this work was provided by the Department of Energy Office
            of Biological and Environmental Research, Office of Basic
            Energy Sciences, and the Office of Advanced Scientific Computing.


           Job information
           ---------------

    hostname        = erato
    program         = ../../../bin/LINUX64/nwchem
    date            = Wed Apr 20 14:26:20 2022

    compiled        = Mon_Apr_18_16:24:48_2022
    source          = /home/hvandam/nwchem-1-mokup
    nwchem branch   = 7.0.0
    nwchem revision = nwchem_on_git-2028-gf3ab5e5fb5
    ga revision     = 5.7.2
    use scalapack   = F
    input           = h2o_ccpvdz.nw
    prefix          = h2o_ccpvdz_dat.
    data base       = ./h2o_ccpvdz_dat.db
    status          = startup
    nproc           =        1
    time left       =     -1s



           Memory information
           ------------------

    heap     =   13107200 doubles =    100.0 Mbytes
    stack    =   13107197 doubles =    100.0 Mbytes
    global   =   26214400 doubles =    200.0 Mbytes (distinct from heap & stack)
    total    =   52428797 doubles =    400.0 Mbytes
    verify   = yes
    hardfail = no 


           Directory information
           ---------------------

  0 permanent = .
  0 scratch   = .




                                NWChem Input Module
                                -------------------




                             Geometry "geometry" -> ""
                             -------------------------

 Output coordinates in a.u. (scale by  1.000000000 to convert to a.u.)

  No.       Tag          Charge          X              Y              Z
 ---- ---------------- ---------- -------------- -------------- --------------
    1 O                    8.0000     0.00000000    -0.14322234     0.00000000
    2 H1                   1.0000     1.63803350     1.13655688     0.00000000
    3 H2                   1.0000    -1.63803350     1.13655688     0.00000000

      Atomic Mass 
      ----------- 

      O                 15.994910
      H1                 1.007825
      H2                 1.007825


 Effective nuclear repulsion energy (a.u.)       8.0023669742

            Nuclear Dipole moment (a.u.) 
            ----------------------------
        X                 Y               Z
 ---------------- ---------------- ----------------
     0.0000000000     1.1273350169     0.0000000000

      Symmetry information
      --------------------

 Group name             Cs        
 Group number              2
 Group order               2
 No. of unique centers     3

      Symmetry unique atoms

     1    2    3


            XYZ format geometry
            -------------------
     3
 geometry
 O                     0.00000000    -0.07579001     0.00000000
 H1                    0.86681006     0.60144004     0.00000000
 H2                   -0.86681006     0.60144004     0.00000000



 Summary of "ao basis" -> "" (cartesian)
 ------------------------------------------------------------------------------
       Tag                 Description            Shells   Functions and Types
 ---------------- ------------------------------  ------  ---------------------
 *                          cc-pvdz                   on all atoms 


                      Basis "ao basis" -> "ao basis" (cartesian)
                      -----
  O (Oxygen)
  ----------
            Exponent  Coefficients 
       -------------- ---------------------------------------------------------
  1 S  1.17200000E+04  0.000710
  1 S  1.75900000E+03  0.005470
  1 S  4.00800000E+02  0.027837
  1 S  1.13700000E+02  0.104800
  1 S  3.70300000E+01  0.283062
  1 S  1.32700000E+01  0.448719
  1 S  5.02500000E+00  0.270952
  1 S  1.01300000E+00  0.015458

  2 S  1.17200000E+04 -0.000160
  2 S  1.75900000E+03 -0.001263
  2 S  4.00800000E+02 -0.006267
  2 S  1.13700000E+02 -0.025716
  2 S  3.70300000E+01 -0.070924
  2 S  1.32700000E+01 -0.165411
  2 S  5.02500000E+00 -0.116955
  2 S  1.01300000E+00  0.557368

  3 S  3.02300000E-01  1.000000

  4 P  1.77000000E+01  0.043018
  4 P  3.85400000E+00  0.228913
  4 P  1.04600000E+00  0.508728

  5 P  2.75300000E-01  1.000000

  6 D  1.18500000E+00  1.000000

  H1 (Hydrogen)
  -------------
            Exponent  Coefficients 
       -------------- ---------------------------------------------------------
  1 S  1.30100000E+01  0.019685
  1 S  1.96200000E+00  0.137977
  1 S  4.44600000E-01  0.478148

  2 S  1.22000000E-01  1.000000

  3 P  7.27000000E-01  1.000000

  H2 (Hydrogen)
  -------------
            Exponent  Coefficients 
       -------------- ---------------------------------------------------------
  1 S  1.30100000E+01  0.019685
  1 S  1.96200000E+00  0.137977
  1 S  4.44600000E-01  0.478148

  2 S  1.22000000E-01  1.000000

  3 P  7.27000000E-01  1.000000



 Summary of "ao basis" -> "ao basis" (cartesian)
 ------------------------------------------------------------------------------
       Tag                 Description            Shells   Functions and Types
 ---------------- ------------------------------  ------  ---------------------
 O                          cc-pvdz                  6       15   3s2p1d
 H1                         cc-pvdz                  3        5   2s1p
 H2                         cc-pvdz                  3        5   2s1p


                                 NWChem SCF Module
                                 -----------------



  ao basis        = "ao basis"
  functions       =    25
  atoms           =     3
  closed shells   =     5
  open shells     =     0
  charge          =   0.00
  wavefunction    = RHF 
  input vectors   = atomic
  output vectors  = ./h2o_ccpvdz_dat.movecs
  use symmetry    = T
  symmetry adapt  = T


 Summary of "ao basis" -> "ao basis" (cartesian)
 ------------------------------------------------------------------------------
       Tag                 Description            Shells   Functions and Types
 ---------------- ------------------------------  ------  ---------------------
 O                          cc-pvdz                  6       15   3s2p1d
 H1                         cc-pvdz                  3        5   2s1p
 H2                         cc-pvdz                  3        5   2s1p


      Symmetry analysis of basis
      --------------------------

        a'         19
        a"          6


 Forming initial guess at       1.0s


      Superposition of Atomic Density Guess
      -------------------------------------

 Sum of atomic energies:         -75.76222910

      Non-variational initial energy
      ------------------------------

 Total energy =     -75.663275
 1-e energy   =    -119.791302
 2-e energy   =      36.125660
 HOMO         =      -0.431976
 LUMO         =       0.048113


      Symmetry analysis of molecular orbitals - initial
      -------------------------------------------------

  Numbering of irreducible representations: 

     1 a'          2 a"      

  Orbital symmetries:

     1 a'          2 a'          3 a'          4 a'          5 a"      
     6 a'          7 a'          8 a'          9 a'         10 a'      
    11 a"         12 a'         13 a'         14 a"         15 a"      


 Starting SCF solution at       1.0s



 ----------------------------------------------
         Quadratically convergent ROHF

 Convergence threshold     :          1.000E-10
 Maximum no. of iterations :           30
 Final Fock-matrix accuracy:          1.000E-25
 ----------------------------------------------

 Warning: symmetry breaking in RHF:    6.4677304762090427E-016

 #quartets = 3.081D+03 #integrals = 3.066D+04 #direct =  0.0% #cached =100.0%


 Integral file          = ./h2o_ccpvdz_dat.aoints.0
 Record size in doubles =    65536    No. of integs per rec  =    43688
 Max. records in memory =        3    Max. records in file   =  2629141
 No. of bits per label  =        8    No. of bits per value  =       64


              iter       energy          gnorm     gmax       time
             ----- ------------------- --------- --------- --------
                 1      -75.9488934859  8.50D-01  3.33D-01      0.1
 Warning: symmetry breaking in RHF:    8.0731334660929171E-016
 Warning: symmetry breaking in RHF:    7.3666674059952787E-016
                 2      -75.9868044060  2.12D-01  1.08D-01      0.1
 Warning: symmetry breaking in RHF:    7.0398359583365883E-016
                 3      -75.9899324252  5.22D-02  2.38D-02      0.1
 Warning: symmetry breaking in RHF:    6.8977282265648501E-016
                 4      -75.9901784720  1.81D-03  9.66D-04      0.1
 Warning: symmetry breaking in RHF:    6.9026243830248735E-016
                 5      -75.9901788053  2.12D-06  9.57D-07      0.1
 Warning: symmetry breaking in RHF:    6.9026323218808963E-016
                 6      -75.9901788053  1.21D-12  4.29D-13      0.1


       Final RHF  results 
       ------------------ 

         Total SCF energy =    -75.990178805331
      One-electron energy =   -120.958758181088
      Two-electron energy =     36.966212401591
 Nuclear repulsion energy =      8.002366974166

        Time for solution =      0.1s



       Symmetry analysis of molecular orbitals - final
       -----------------------------------------------

  Numbering of irreducible representations: 

     1 a'          2 a"      

  Orbital symmetries:

     1 a'          2 a'          3 a'          4 a'          5 a"      
     6 a'          7 a'          8 a'          9 a'         10 a'      
    11 a"         12 a'         13 a'         14 a"         15 a"      

             Final eigenvalues
             -----------------

              1      
    1  -20.5759
    2   -1.2779
    3   -0.6303
    4   -0.5421
    5   -0.4870
    6    0.1554
    7    0.2293
    8    0.7045
    9    0.7440
   10    1.1671
   11    1.1861
   12    1.2677
   13    1.4412
   14    1.4507
   15    1.6582

                       ROHF Final Molecular Orbital Analysis
                       -------------------------------------

 Vector    2  Occ=2.000000D+00  E=-1.277928D+00  Symmetry=a'
              MO Center=  2.0D-16,  6.0D-02,  2.6D-17, r^2= 5.2D-01
   Bfn.  Coefficient  Atom+Function         Bfn.  Coefficient  Atom+Function  
  ----- ------------  ---------------      ----- ------------  ---------------
     2      0.455509  1 O  s                  3      0.455935  1 O  s          

 Vector    3  Occ=2.000000D+00  E=-6.302821D-01  Symmetry=a'
              MO Center= -5.4D-15,  1.8D-01, -8.5D-18, r^2= 9.1D-01
   Bfn.  Coefficient  Atom+Function         Bfn.  Coefficient  Atom+Function  
  ----- ------------  ---------------      ----- ------------  ---------------
     4      0.474558  1 O  px                16      0.299525  2 H  s          
    21     -0.299525  3 H  s                  7      0.261894  1 O  px         

 Vector    4  Occ=2.000000D+00  E=-5.420543D-01  Symmetry=a'
              MO Center=  2.4D-15, -3.8D-02, -3.5D-17, r^2= 8.0D-01
   Bfn.  Coefficient  Atom+Function         Bfn.  Coefficient  Atom+Function  
  ----- ------------  ---------------      ----- ------------  ---------------
     5      0.530407  1 O  py                 8      0.375301  1 O  py         
     3     -0.318180  1 O  s                 16      0.208794  2 H  s          
    21      0.208794  3 H  s          

 Vector    5  Occ=2.000000D+00  E=-4.870028D-01  Symmetry=a"
              MO Center=  7.3D-17, -5.7D-02, -9.2D-17, r^2= 6.0D-01
   Bfn.  Coefficient  Atom+Function         Bfn.  Coefficient  Atom+Function  
  ----- ------------  ---------------      ----- ------------  ---------------
     6      0.637436  1 O  pz                 9      0.499013  1 O  pz         

 Vector    6  Occ=0.000000D+00  E= 1.554014D-01  Symmetry=a'
              MO Center= -1.5D-13,  6.7D-01, -3.5D-17, r^2= 2.9D+00
   Bfn.  Coefficient  Atom+Function         Bfn.  Coefficient  Atom+Function  
  ----- ------------  ---------------      ----- ------------  ---------------
     3      0.914174  1 O  s                 17     -0.765743  2 H  s          
    22     -0.765743  3 H  s                  8      0.394489  1 O  py         
     5      0.244769  1 O  py         

 Vector    7  Occ=0.000000D+00  E= 2.292919D-01  Symmetry=a'
              MO Center=  1.3D-13,  6.8D-01,  3.5D-17, r^2= 3.4D+00
   Bfn.  Coefficient  Atom+Function         Bfn.  Coefficient  Atom+Function  
  ----- ------------  ---------------      ----- ------------  ---------------
    17      1.182772  2 H  s                 22     -1.182772  3 H  s          
     7     -0.655032  1 O  px                 4     -0.328557  1 O  px         

 Vector    8  Occ=0.000000D+00  E= 7.045038D-01  Symmetry=a'
              MO Center= -2.7D-14,  4.3D-01,  7.2D-17, r^2= 2.2D+00
   Bfn.  Coefficient  Atom+Function         Bfn.  Coefficient  Atom+Function  
  ----- ------------  ---------------      ----- ------------  ---------------
    16      0.931789  2 H  s                 21     -0.931789  3 H  s          
    17     -0.870493  2 H  s                 22      0.870493  3 H  s          
     4     -0.281736  1 O  px                 7     -0.238458  1 O  px         
    11      0.158769  1 O  dxy        

 Vector    9  Occ=0.000000D+00  E= 7.440406D-01  Symmetry=a'
              MO Center=  3.5D-14,  6.3D-01,  7.6D-18, r^2= 1.9D+00
   Bfn.  Coefficient  Atom+Function         Bfn.  Coefficient  Atom+Function  
  ----- ------------  ---------------      ----- ------------  ---------------
    16      0.869492  2 H  s                 21      0.869492  3 H  s          
    17     -0.647982  2 H  s                 22     -0.647982  3 H  s          
     3      0.389740  1 O  s                  5     -0.316561  1 O  py         
     2     -0.254136  1 O  s                 18      0.190533  2 H  px         
    23     -0.190533  3 H  px         

 Vector   10  Occ=0.000000D+00  E= 1.167144D+00  Symmetry=a'
              MO Center=  3.8D-15, -7.9D-02,  4.0D-16, r^2= 1.2D+00
   Bfn.  Coefficient  Atom+Function         Bfn.  Coefficient  Atom+Function  
  ----- ------------  ---------------      ----- ------------  ---------------
     8      1.059229  1 O  py                 5     -0.773560  1 O  py         
    16     -0.318689  2 H  s                 21     -0.318689  3 H  s          
    19      0.306329  2 H  py                24      0.306329  3 H  py         
     3      0.208312  1 O  s                  2      0.172735  1 O  s          

 Vector   11  Occ=0.000000D+00  E= 1.186058D+00  Symmetry=a"
              MO Center=  1.5D-15,  5.7D-03, -6.9D-16, r^2= 1.1D+00
   Bfn.  Coefficient  Atom+Function         Bfn.  Coefficient  Atom+Function  
  ----- ------------  ---------------      ----- ------------  ---------------
     6      0.943314  1 O  pz                 9     -0.928781  1 O  pz         

 Vector   12  Occ=0.000000D+00  E= 1.267689D+00  Symmetry=a'
              MO Center= -1.0D-14, -8.1D-02,  4.8D-17, r^2= 1.6D+00
   Bfn.  Coefficient  Atom+Function         Bfn.  Coefficient  Atom+Function  
  ----- ------------  ---------------      ----- ------------  ---------------
     7      1.576180  1 O  px                 4     -0.792594  1 O  px         
    17     -0.626815  2 H  s                 22      0.626815  3 H  s          
    18      0.328629  2 H  px                23      0.328629  3 H  px         
    16     -0.281589  2 H  s                 21      0.281589  3 H  s          

 Vector   13  Occ=0.000000D+00  E= 1.441200D+00  Symmetry=a'
              MO Center=  4.4D-15,  6.8D-02,  2.3D-16, r^2= 1.5D+00
   Bfn.  Coefficient  Atom+Function         Bfn.  Coefficient  Atom+Function  
  ----- ------------  ---------------      ----- ------------  ---------------
     3      1.186420  1 O  s                  2     -0.732901  1 O  s          
     8     -0.512747  1 O  py                19      0.441103  2 H  py         
    24      0.441103  3 H  py                18     -0.343751  2 H  px         
    23      0.343751  3 H  px                 1     -0.336347  1 O  s          
    10     -0.255806  1 O  dxx               17     -0.242806  2 H  s          

 Vector   14  Occ=0.000000D+00  E= 1.450715D+00  Symmetry=a"
              MO Center=  1.7D-14,  5.6D-01, -7.8D-17, r^2= 1.2D+00
   Bfn.  Coefficient  Atom+Function         Bfn.  Coefficient  Atom+Function  
  ----- ------------  ---------------      ----- ------------  ---------------
    20      0.681005  2 H  pz                25     -0.681005  3 H  pz         
    12      0.249358  1 O  dxz        

 Vector   15  Occ=0.000000D+00  E= 1.658191D+00  Symmetry=a"
              MO Center= -1.8D-14,  3.7D-01,  7.6D-16, r^2= 1.4D+00
   Bfn.  Coefficient  Atom+Function         Bfn.  Coefficient  Atom+Function  
  ----- ------------  ---------------      ----- ------------  ---------------
    20     -0.734021  2 H  pz                25     -0.734021  3 H  pz         
     9      0.691976  1 O  pz                14     -0.281767  1 O  dyz        
     6     -0.207039  1 O  pz         


 center of mass
 --------------
 x =   0.00000000 y =   0.00000402 z =   0.00000000

 moments of inertia (a.u.)
 ------------------
           2.931836975553           0.000000000000           0.000000000000
           0.000000000000           5.408298863820           0.000000000000
           0.000000000000           0.000000000000           8.340135839373

  Mulliken analysis of the total density
  --------------------------------------

    Atom       Charge   Shell Charges
 -----------   ------   -------------------------------------------------------
    1 O    8     8.44   2.00  0.85  0.94  2.71  1.93  0.01
    2 H    1     0.78   0.60  0.12  0.06
    3 H    1     0.78   0.60  0.12  0.06

       Multipole analysis of the density wrt the origin
       ------------------------------------------------

     L   x y z        total         open         nuclear
     -   - - -        -----         ----         -------
     0   0 0 0     -0.000000      0.000000     10.000000

     1   1 0 0      0.000000      0.000000      0.000000
     1   0 1 0      0.856077      0.000000      1.127335
     1   0 0 1      0.000000      0.000000      0.000000

     2   2 0 0     -2.865824      0.000000      5.366308
     2   1 1 0      0.000000      0.000000      0.000000
     2   1 0 1     -0.000000      0.000000      0.000000
     2   0 2 0     -4.203543      0.000000      2.747624
     2   0 1 1      0.000000      0.000000      0.000000
     2   0 0 2     -5.465883      0.000000      0.000000


 Parallel integral file used       1 records with       0 large values

                              NWChem Gradients Module
                              -----------------------



  wavefunction    =   RHF     

  Using symmetry
tensor_t overlap_nuc(TA::World& world) {
    TA::detail::tensor2_il<double> il{
      {
           -0.0000000000000017, // iat,icrd=  1 1
            0.4015860094765417, // iat,icrd=  1 2
           -0.0000000000000001  // iat,icrd=  1 3
        },
      {
           -0.2436304558691329, // iat,icrd=  2 1
           -0.2007930047382654, // iat,icrd=  2 2
            0.0000000000000002  // iat,icrd=  2 3
        },
      {
            0.2436304558691347, // iat,icrd=  3 1
           -0.2007930047382762, // iat,icrd=  3 2
           -0.0000000000000001  // iat,icrd=  3 3
        }
    };
    return tensor_t(TA::TSpArrayD(world, il));
}




tensor_t nuclear_nuc(TA::World& world) {
    TA::detail::tensor2_il<double> il{
      {
            0.0000000000000000, // iat,icrd=  1 1
            2.2797139408827602, // iat,icrd=  1 2
            0.0000000000000000  // iat,icrd=  1 3
        },
      {
           -1.5521161292345111, // iat,icrd=  2 1
           -1.1398569704413801, // iat,icrd=  2 2
            0.0000000000000000  // iat,icrd=  2 3
        },
      {
            1.5521161292345111, // iat,icrd=  3 1
           -1.1398569704413801, // iat,icrd=  3 2
            0.0000000000000000  // iat,icrd=  3 3
        }
    };
    return tensor_t(TA::TSpArrayD(world, il));
}




tensor_t kinetic_nuc(TA::World& world) {
    TA::detail::tensor2_il<double> il{
      {
            0.0000000000000009, // iat,icrd=  1 1
            0.6829019785754225, // iat,icrd=  1 2
           -0.0000000000000001  // iat,icrd=  1 3
        },
      {
           -0.4496440980831522, // iat,icrd=  2 1
           -0.3414509892877061, // iat,icrd=  2 2
            0.0000000000000001  // iat,icrd=  2 3
        },
      {
            0.4496440980831511, // iat,icrd=  3 1
           -0.3414509892877167, // iat,icrd=  3 2
            0.0000000000000000  // iat,icrd=  3 3
        }
    };
    return tensor_t(TA::TSpArrayD(world, il));
}




tensor_t nuclear_attraction_nuc(TA::World& world) {
    TA::detail::tensor2_il<double> il{
      {
           -0.0000000000000119, // iat,icrd=  1 1
           -6.9270227724899414, // iat,icrd=  1 2
            0.0000000000000012  // iat,icrd=  1 3
        },
      {
            4.5888527210376040, // iat,icrd=  2 1
            3.4635113862449196, // iat,icrd=  2 2
           -0.0000000000000013  // iat,icrd=  2 3
        },
      {
           -4.5888527210375898, // iat,icrd=  3 1
            3.4635113862450204, // iat,icrd=  3 2
            0.0000000000000001  // iat,icrd=  3 3
        }
    };
    return tensor_t(TA::TSpArrayD(world, il));
}




tensor_t eri_nuc(TA::World& world) {
    TA::detail::tensor2_il<double> il{
      {
            0.0000000000000119, // iat,icrd=  1 1
            3.4384474552125841, // iat,icrd=  1 2
           -0.0000000000000010  // iat,icrd=  1 3
        },
      {
           -2.2545517780941848, // iat,icrd=  2 1
           -1.7192237276062607, // iat,icrd=  2 2
            0.0000000000000010  // iat,icrd=  2 3
        },
      {
            2.2545517780941813, // iat,icrd=  3 1
           -1.7192237276063342, // iat,icrd=  3 2
           -0.0000000000000000  // iat,icrd=  3 3
        }
    };
    return tensor_t(TA::TSpArrayD(world, il));
}


                         RHF ENERGY GRADIENTS

    atom               coordinates                        gradient
                 x          y          z           x          y          z
   1 O       0.000000  -0.143222   0.000000   -0.000000  -0.124373   0.000000
   2 H1      1.638034   1.136557   0.000000    0.088910   0.062187   0.000000
   3 H2     -1.638034   1.136557   0.000000   -0.088910   0.062187   0.000000

                 ----------------------------------------
                 |  Time  |  1-e(secs)   |  2-e(secs)   |
                 ----------------------------------------
                 |  CPU   |       0.00   |       0.23   |
                 ----------------------------------------
                 |  WALL  |       0.00   |       0.24   |
                 ----------------------------------------

 Task  times  cpu:        0.4s     wall:        0.8s


                                NWChem Input Module
                                -------------------


 Summary of allocated global arrays
-----------------------------------
  No active global arrays



                         GA Statistics for process    0
                         ------------------------------

       create   destroy   get      put      acc     scatter   gather  read&inc
calls:  545      545     1.22e+04 1771     2130        0        0      424     
number of processes/call 0.00e+00 0.00e+00 0.00e+00 0.00e+00 0.00e+00
bytes total:             2.72e+06 1.65e+06 7.42e+05 0.00e+00 0.00e+00 3.39e+03
bytes remote:            0.00e+00 0.00e+00 0.00e+00 0.00e+00 0.00e+00 0.00e+00
Max memory consumed for GA by this process: 65000 bytes

MA_summarize_allocated_blocks: starting scan ...
MA_summarize_allocated_blocks: scan completed: 0 heap blocks, 0 stack blocks
MA usage statistics:

	allocation statistics:
					      heap	     stack
					      ----	     -----
	current number of blocks	         0	         0
	maximum number of blocks	        19	        29
	current total bytes		         0	         0
	maximum total bytes		   1586048	  22509640
	maximum total K-bytes		      1587	     22510
	maximum total M-bytes		         2	        23


                                     CITATION
                                     --------
                Please cite the following reference when publishing
                           results obtained with NWChem:

          E. Aprà, E. J. Bylaska, W. A. de Jong, N. Govind, K. Kowalski,
       T. P. Straatsma, M. Valiev, H. J. J. van Dam, Y. Alexeev, J. Anchell,
       V. Anisimov, F. W. Aquino, R. Atta-Fynn, J. Autschbach, N. P. Bauman,
     J. C. Becca, D. E. Bernholdt, K. Bhaskaran-Nair, S. Bogatko, P. Borowski,
        J. Boschen, J. Brabec, A. Bruner, E. Cauët, Y. Chen, G. N. Chuev,
      C. J. Cramer, J. Daily, M. J. O. Deegan, T. H. Dunning Jr., M. Dupuis,
   K. G. Dyall, G. I. Fann, S. A. Fischer, A. Fonari, H. Früchtl, L. Gagliardi,
      J. Garza, N. Gawande, S. Ghosh, K. Glaesemann, A. W. Götz, J. Hammond,
       V. Helms, E. D. Hermes, K. Hirao, S. Hirata, M. Jacquelin, L. Jensen,
   B. G. Johnson, H. Jónsson, R. A. Kendall, M. Klemm, R. Kobayashi, V. Konkov,
      S. Krishnamoorthy, M. Krishnan, Z. Lin, R. D. Lins, R. J. Littlefield,
      A. J. Logsdail, K. Lopata, W. Ma, A. V. Marenich, J. Martin del Campo,
   D. Mejia-Rodriguez, J. E. Moore, J. M. Mullin, T. Nakajima, D. R. Nascimento,
    J. A. Nichols, P. J. Nichols, J. Nieplocha, A. Otero-de-la-Roza, B. Palmer,
    A. Panyala, T. Pirojsirikul, B. Peng, R. Peverati, J. Pittner, L. Pollack,
   R. M. Richard, P. Sadayappan, G. C. Schatz, W. A. Shelton, D. W. Silverstein,
   D. M. A. Smith, T. A. Soares, D. Song, M. Swart, H. L. Taylor, G. S. Thomas,
            V. Tipparaju, D. G. Truhlar, K. Tsemekhman, T. Van Voorhis,
     Á. Vázquez-Mayagoitia, P. Verma, O. Villa, A. Vishnu, K. D. Vogiatzis,
        D. Wang, J. H. Weare, M. J. Williamson, T. L. Windus, K. Woliński,
        A. T. Wong, Q. Wu, C. Yang, Q. Yu, M. Zacharias, Z. Zhang, Y. Zhao,
                                and R. J. Harrison
                        "NWChem: Past, present, and future
                         J. Chem. Phys. 152, 184102 (2020)
                               doi:10.1063/5.0004997

                                      AUTHORS
                                      -------
     E. Apra, E. J. Bylaska, N. Govind, K. Kowalski, M. Valiev, W. A. de Jong,
      T. P. Straatsma, H. J. J. van Dam, D. Wang, T. L. Windus, N. P. Bauman,
       A. Panyala, J. Hammond, J. Autschbach, K. Bhaskaran-Nair, J. Brabec,
    K. Lopata, S. A. Fischer, S. Krishnamoorthy, M. Jacquelin, W. Ma, M. Klemm,
       O. Villa, Y. Chen, V. Anisimov, F. Aquino, S. Hirata, M. T. Hackler,
           Eric Hermes, L. Jensen, J. E. Moore, J. C. Becca, V. Konjkov,
            D. Mejia-Rodriguez, T. Risthaus, M. Malagoli, A. Marenich,
   A. Otero-de-la-Roza, J. Mullin, P. Nichols, R. Peverati, J. Pittner, Y. Zhao,
        P.-D. Fan, A. Fonari, M. J. Williamson, R. J. Harrison, J. R. Rehr,
      M. Dupuis, D. Silverstein, D. M. A. Smith, J. Nieplocha, V. Tipparaju,
      M. Krishnan, B. E. Van Kuiken, A. Vazquez-Mayagoitia, M. Swart, Q. Wu,
   T. Van Voorhis, A. A. Auer, M. Nooijen, L. D. Crosby, E. Brown, G. Cisneros,
     G. I. Fann, H. Fruchtl, J. Garza, K. Hirao, R. A. Kendall, J. A. Nichols,
       K. Tsemekhman, K. Wolinski, J. Anchell, D. E. Bernholdt, P. Borowski,
       T. Clark, D. Clerc, H. Dachsel, M. J. O. Deegan, K. Dyall, D. Elwood,
      E. Glendening, M. Gutowski, A. C. Hess, J. Jaffe, B. G. Johnson, J. Ju,
        R. Kobayashi, R. Kutteh, Z. Lin, R. Littlefield, X. Long, B. Meng,
      T. Nakajima, S. Niu, L. Pollack, M. Rosing, K. Glaesemann, G. Sandrone,
      M. Stave, H. Taylor, G. Thomas, J. H. van Lenthe, A. T. Wong, Z. Zhang.

 Total times  cpu:        0.4s     wall:        1.5s
