 argument  1 = scf_be.nw



============================== echo of input deck ==============================
echo
start wfn1_be_dat

geometry
  be 0 0 0
end
basis
  * library 6-31g*
end

dft
  xc hfexch
end

task dft energy
================================================================================


                                         
                                         


              Northwest Computational Chemistry Package (NWChem) 6.8
              ------------------------------------------------------


                    Environmental Molecular Sciences Laboratory
                       Pacific Northwest National Laboratory
                                Richland, WA 99352

                              Copyright (c) 1994-2015
                       Pacific Northwest National Laboratory
                            Battelle Memorial Institute

             NWChem is an open-source computational chemistry package
                        distributed under the terms of the
                      Educational Community License (ECL) 2.0
             A copy of the license is included with this distribution
                              in the LICENSE.TXT file

                                  ACKNOWLEDGMENT
                                  --------------

            This software and its documentation were developed at the
            EMSL at Pacific Northwest National Laboratory, a multiprogram
            national laboratory, operated for the U.S. Department of Energy
            by Battelle under Contract Number DE-AC05-76RL01830. Support
            for this work was provided by the Department of Energy Office
            of Biological and Environmental Research, Office of Basic
            Energy Sciences, and the Office of Advanced Scientific Computing.


           Job information
           ---------------

    hostname        = erato
    program         = ../../../bin/LINUX64/nwchem
    date            = Sun Apr 22 22:44:25 2018

    compiled        = Sun_Apr_22_21:22:26_2018
    source          = /home/hvandam/nwchem-1-wfn1
    nwchem branch   = Development
    nwchem revision = nwchem_on_git-51-gcccac83fc2a4226c5c513281d68ab773edcb0a0d
    ga revision     = nwchem_on_git-43-g1da910a
    use scalapack   = F
    input           = scf_be.nw
    prefix          = wfn1_be_dat.
    data base       = ./wfn1_be_dat.db
    status          = startup
    nproc           =        1
    time left       =     -1s



           Memory information
           ------------------

    heap     =   13107194 doubles =    100.0 Mbytes
    stack    =   13107199 doubles =    100.0 Mbytes
    global   =   26214400 doubles =    200.0 Mbytes (distinct from heap & stack)
    total    =   52428793 doubles =    400.0 Mbytes
    verify   = yes
    hardfail = no 


           Directory information
           ---------------------

  0 permanent = .
  0 scratch   = .




                                NWChem Input Module
                                -------------------



 Scaling coordinates for geometry "geometry" by  1.889725989
 (inverse scale =  0.529177249)



                             Geometry "geometry" -> ""
                             -------------------------

 Output coordinates in angstroms (scale by  1.889725989 to convert to a.u.)

  No.       Tag          Charge          X              Y              Z
 ---- ---------------- ---------- -------------- -------------- --------------
    1 be                   4.0000     0.00000000     0.00000000     0.00000000

      Atomic Mass 
      ----------- 

      be                 9.012180


 Effective nuclear repulsion energy (a.u.)       0.0000000000

            Nuclear Dipole moment (a.u.) 
            ----------------------------
        X                 Y               Z
 ---------------- ---------------- ----------------
     0.0000000000     0.0000000000     0.0000000000


            XYZ format geometry
            -------------------
     1
 geometry
 be                    0.00000000     0.00000000     0.00000000



 Summary of "ao basis" -> "" (cartesian)
 ------------------------------------------------------------------------------
       Tag                 Description            Shells   Functions and Types
 ---------------- ------------------------------  ------  ---------------------
 *                           6-31g*                   on all atoms 


  xc_inp: hfexch multiplicative factor not found.

                                 NWChem DFT Module
                                 -----------------


                      Basis "ao basis" -> "ao basis" (cartesian)
                      -----
  be (Beryllium)
  --------------
            Exponent  Coefficients 
       -------------- ---------------------------------------------------------
  1 S  1.26458570E+03  0.001945
  1 S  1.89936810E+02  0.014835
  1 S  4.31590890E+01  0.072091
  1 S  1.20986630E+01  0.237154
  1 S  3.80632320E+00  0.469199
  1 S  1.27289030E+00  0.356520

  2 S  3.19646310E+00 -0.112649
  2 S  7.47813300E-01 -0.229506
  2 S  2.19966300E-01  1.186917

  3 P  3.19646310E+00  0.055980
  3 P  7.47813300E-01  0.261551
  3 P  2.19966300E-01  0.793972

  4 S  8.23099000E-02  1.000000

  5 P  8.23099000E-02  1.000000

  6 D  4.00000000E-01  1.000000



 Summary of "ao basis" -> "ao basis" (cartesian)
 ------------------------------------------------------------------------------
       Tag                 Description            Shells   Functions and Types
 ---------------- ------------------------------  ------  ---------------------
 be                          6-31g*                  6       15   3s2p1d




 Summary of "ao basis" -> "ao basis" (cartesian)
 ------------------------------------------------------------------------------
       Tag                 Description            Shells   Functions and Types
 ---------------- ------------------------------  ------  ---------------------
 be                          6-31g*                  6       15   3s2p1d


  Caching 1-el integrals 

            General Information
            -------------------
          SCF calculation type: DFT
          Wavefunction type:  closed shell.
          No. of atoms     :     1
          No. of electrons :     4
           Alpha electrons :     2
            Beta electrons :     2
          Charge           :     0
          Spin multiplicity:     1
          Use of symmetry is: off; symmetry adaption is: off
          Maximum number of iterations:  30
          AO basis - number of functions:    15
                     number of shells:     6
          Convergence on energy requested:  1.00D-06
          Convergence on density requested:  1.00D-05
          Convergence on gradient requested:  5.00D-04

              XC Information
              --------------
                     Hartree-Fock (Exact) Exchange  1.000          

          Convergence Information
          -----------------------
          Convergence aids based upon iterative change in 
          total energy or number of iterations. 
          Levelshifting, if invoked, occurs when the 
          HOMO/LUMO gap drops below (HL_TOL):  1.00D-02
          DIIS, if invoked, will attempt to extrapolate 
          using up to (NFOCK): 10 stored Fock matrices.

                    Damping( 0%)  Levelshifting(0.5)       DIIS
                  --------------- ------------------- ---------------
          dE  on:    start            ASAP                start   
          dE off:    2 iters         30 iters            30 iters 


      Screening Tolerance Information
      -------------------------------
          Density screening/tol_rho:  1.00D-10
          AO Gaussian exp screening on grid/accAOfunc:  14
          CD Gaussian exp screening on grid/accCDfunc:  20
          XC Gaussian exp screening on grid/accXCfunc:  20
          Schwarz screening/accCoul:  1.00D-08


      Superposition of Atomic Density Guess
      -------------------------------------

 Sum of atomic energies:         -14.56676403

      Non-variational initial energy
      ------------------------------

 Total energy =     -14.566764
 1-e energy   =     -19.117157
 2-e energy   =       4.550393
 HOMO         =      -0.301367
 LUMO         =       0.082435

   Time after variat. SCF:      0.1
   Time prior to 1st pass:      0.1

 #quartets = 2.310D+02 #integrals = 1.797D+03 #direct =  0.0% #cached =100.0%


 Integral file          = ./wfn1_be_dat.aoints.0
 Record size in doubles =    65536    No. of integs per rec  =    43688
 Max. records in memory =        2    Max. records in file   =  4586878
 No. of bits per label  =        8    No. of bits per value  =       64


           Memory utilization after 1st SCF pass: 
           Heap Space remaining (MW):       12.97            12974730
          Stack Space remaining (MW):       13.11            13106996

   convergence    iter        energy       DeltaE   RMS-Dens  Diis-err    time
 ---------------- ----- ----------------- --------- --------- ---------  ------
 d= 0,ls=0.0,diis     1    -14.5669422194 -1.46D+01  6.78D-04  2.72D-05     0.2
 d= 0,ls=0.0,diis     2    -14.5669443352 -2.12D-06  8.30D-05  3.30D-07     0.2
 d= 0,ls=0.0,diis     3    -14.5669443614 -2.62D-08  4.06D-07  1.26D-11     0.2


         Total DFT energy =      -14.566944361416
      One electron energy =      -19.111900916305
           Coulomb energy =        7.227871246747
    Exchange-Corr. energy =       -2.682914691858
 Nuclear repulsion energy =        0.000000000000

 Numeric. integr. density =        0.000000000000

     Total iterative time =      0.1s



                       DFT Final Molecular Orbital Analysis
                       ------------------------------------

 Vector    1  Occ=2.000000D+00  E=-4.709456D+00
              MO Center= -8.4D-18, -4.0D-17,  4.5D-17, r^2= 6.5D-02
   Bfn.  Coefficient  Atom+Function         Bfn.  Coefficient  Atom+Function  
  ----- ------------  ---------------      ----- ------------  ---------------
     1      0.998377  1 Be s          

 Vector    2  Occ=2.000000D+00  E=-3.015381D-01
              MO Center=  6.3D-16,  6.1D-16,  2.2D-16, r^2= 2.1D+00
   Bfn.  Coefficient  Atom+Function         Bfn.  Coefficient  Atom+Function  
  ----- ------------  ---------------      ----- ------------  ---------------
     6      0.764063  1 Be s                  2      0.252066  1 Be s          
     1     -0.220957  1 Be s          

 Vector    3  Occ=0.000000D+00  E= 8.224089D-02
              MO Center=  3.8D-16, -3.8D-16,  2.0D-16, r^2= 3.4D+00
   Bfn.  Coefficient  Atom+Function         Bfn.  Coefficient  Atom+Function  
  ----- ------------  ---------------      ----- ------------  ---------------
     8     -0.557517  1 Be py                 7      0.536622  1 Be px         
     9      0.214375  1 Be pz                 4     -0.184118  1 Be py         
     3      0.177217  1 Be px                 5      0.070797  1 Be pz         

 Vector    4  Occ=0.000000D+00  E= 8.224089D-02
              MO Center=  4.6D-16,  3.2D-16, -4.5D-16, r^2= 3.4D+00
   Bfn.  Coefficient  Atom+Function         Bfn.  Coefficient  Atom+Function  
  ----- ------------  ---------------      ----- ------------  ---------------
     7      0.540669  1 Be px                 9     -0.492890  1 Be pz         
     8      0.330881  1 Be py                 3      0.178554  1 Be px         
     5     -0.162775  1 Be pz                 4      0.109272  1 Be py         

 Vector    5  Occ=0.000000D+00  E= 8.224089D-02
              MO Center= -3.1D-16, -5.5D-16, -6.5D-16, r^2= 3.4D+00
   Bfn.  Coefficient  Atom+Function         Bfn.  Coefficient  Atom+Function  
  ----- ------------  ---------------      ----- ------------  ---------------
     9      0.596530  1 Be pz                 8      0.473749  1 Be py         
     7      0.253888  1 Be px                 5      0.197002  1 Be pz         
     4      0.156454  1 Be py                 3      0.083846  1 Be px         

 Vector    6  Occ=0.000000D+00  E= 4.389411D-01
              MO Center=  6.3D-15, -4.1D-15, -2.2D-16, r^2= 3.8D+00
   Bfn.  Coefficient  Atom+Function         Bfn.  Coefficient  Atom+Function  
  ----- ------------  ---------------      ----- ------------  ---------------
     2      2.135894  1 Be s                  6     -1.906161  1 Be s          
    10     -0.050128  1 Be dxx               13     -0.050128  1 Be dyy        
    15     -0.050128  1 Be dzz        

 Vector    7  Occ=0.000000D+00  E= 4.643612D-01
              MO Center= -5.5D-15, -1.5D-15,  5.6D-16, r^2= 3.0D+00
   Bfn.  Coefficient  Atom+Function         Bfn.  Coefficient  Atom+Function  
  ----- ------------  ---------------      ----- ------------  ---------------
     3      1.260993  1 Be px                 7     -1.032108  1 Be px         
     4      0.347525  1 Be py                 8     -0.284445  1 Be py         
     5     -0.171475  1 Be pz                 9      0.140350  1 Be pz         

 Vector    8  Occ=0.000000D+00  E= 4.643612D-01
              MO Center= -6.1D-16,  3.1D-15,  2.8D-15, r^2= 3.0D+00
   Bfn.  Coefficient  Atom+Function         Bfn.  Coefficient  Atom+Function  
  ----- ------------  ---------------      ----- ------------  ---------------
     4      0.955083  1 Be py                 5      0.899014  1 Be pz         
     8     -0.781724  1 Be py                 9     -0.735832  1 Be pz         
     3     -0.140965  1 Be px                 7      0.115378  1 Be px         

 Vector    9  Occ=0.000000D+00  E= 4.643612D-01
              MO Center= -1.1D-15,  2.8D-15, -3.2D-15, r^2= 3.0D+00
   Bfn.  Coefficient  Atom+Function         Bfn.  Coefficient  Atom+Function  
  ----- ------------  ---------------      ----- ------------  ---------------
     5      0.950080  1 Be pz                 4     -0.841026  1 Be py         
     9     -0.777629  1 Be pz                 8      0.688369  1 Be py         
     3      0.360979  1 Be px                 7     -0.295457  1 Be px         

 Vector   10  Occ=0.000000D+00  E= 1.068860D+00
              MO Center=  3.2D-16, -1.1D-16, -2.3D-16, r^2= 1.2D+00
   Bfn.  Coefficient  Atom+Function         Bfn.  Coefficient  Atom+Function  
  ----- ------------  ---------------      ----- ------------  ---------------
    11      1.234535  1 Be dxy               14     -0.898034  1 Be dyz        
    12      0.772826  1 Be dxz               10      0.139590  1 Be dxx        
    15     -0.128410  1 Be dzz        

 Vector   11  Occ=0.000000D+00  E= 1.068860D+00
              MO Center= -3.8D-16, -1.4D-16,  7.2D-16, r^2= 1.2D+00
   Bfn.  Coefficient  Atom+Function         Bfn.  Coefficient  Atom+Function  
  ----- ------------  ---------------      ----- ------------  ---------------
    12      1.446663  1 Be dxz               14      0.775949  1 Be dyz        
    11     -0.408622  1 Be dxy               15     -0.214540  1 Be dzz        
    10      0.109327  1 Be dxx               13      0.105212  1 Be dyy        

 Vector   12  Occ=0.000000D+00  E= 1.068860D+00
              MO Center= -2.3D-17, -9.2D-18, -1.2D-16, r^2= 1.2D+00
   Bfn.  Coefficient  Atom+Function         Bfn.  Coefficient  Atom+Function  
  ----- ------------  ---------------      ----- ------------  ---------------
    10      0.892689  1 Be dxx               15     -0.731852  1 Be dzz        
    11     -0.362045  1 Be dxy               12     -0.292261  1 Be dxz        
    14     -0.258400  1 Be dyz               13     -0.160837  1 Be dyy        

 Vector   13  Occ=0.000000D+00  E= 1.068860D+00
              MO Center=  2.1D-16, -6.9D-17,  2.2D-16, r^2= 1.2D+00
   Bfn.  Coefficient  Atom+Function         Bfn.  Coefficient  Atom+Function  
  ----- ------------  ---------------      ----- ------------  ---------------
    14      1.216781  1 Be dyz               11      1.083209  1 Be dxy        
    12     -0.443166  1 Be dxz               15     -0.216239  1 Be dzz        
    10      0.156671  1 Be dxx               13      0.059568  1 Be dyy        

 Vector   14  Occ=0.000000D+00  E= 1.068860D+00
              MO Center=  1.3D-16, -3.5D-16,  8.1D-17, r^2= 1.2D+00
   Bfn.  Coefficient  Atom+Function         Bfn.  Coefficient  Atom+Function  
  ----- ------------  ---------------      ----- ------------  ---------------
    13      0.979484  1 Be dyy               15     -0.595917  1 Be dzz        
    10     -0.383566  1 Be dxx               14     -0.210030  1 Be dyz        
    12     -0.167613  1 Be dxz               11     -0.067343  1 Be dxy        

 Vector   15  Occ=0.000000D+00  E= 2.850434D+00
              MO Center= -5.9D-16, -1.0D-17, -3.7D-18, r^2= 8.6D-01
   Bfn.  Coefficient  Atom+Function         Bfn.  Coefficient  Atom+Function  
  ----- ------------  ---------------      ----- ------------  ---------------
     2      6.712011  1 Be s                 10     -2.845215  1 Be dxx        
    13     -2.845215  1 Be dyy               15     -2.845215  1 Be dzz        
     6     -0.440470  1 Be s                  1     -0.311075  1 Be s          


 Parallel integral file used       1 records with       0 large values


 Task  times  cpu:        0.0s     wall:        0.2s


                                NWChem Input Module
                                -------------------


 Summary of allocated global arrays
-----------------------------------
  No active global arrays



                         GA Statistics for process    0
                         ------------------------------

       create   destroy   get      put      acc     scatter   gather  read&inc
calls:   78       78      372      303       43        0        0       72     
number of processes/call 1.00e+00 1.00e+00 1.00e+00 0.00e+00 0.00e+00
bytes total:             2.53e+05 1.28e+05 7.74e+04 0.00e+00 0.00e+00 5.76e+02
bytes remote:            0.00e+00 0.00e+00 0.00e+00 0.00e+00 0.00e+00 0.00e+00
Max memory consumed for GA by this process: 70200 bytes

MA_summarize_allocated_blocks: starting scan ...
MA_summarize_allocated_blocks: scan completed: 0 heap blocks, 0 stack blocks
MA usage statistics:

	allocation statistics:
					      heap	     stack
					      ----	     -----
	current number of blocks	         0	         0
	maximum number of blocks	        19	        19
	current total bytes		         0	         0
	maximum total bytes		   1059448	  22510232
	maximum total K-bytes		      1060	     22511
	maximum total M-bytes		         2	        23


                                     CITATION
                                     --------
                Please cite the following reference when publishing
                           results obtained with NWChem:

                 M. Valiev, E.J. Bylaska, N. Govind, K. Kowalski,
              T.P. Straatsma, H.J.J. van Dam, D. Wang, J. Nieplocha,
                        E. Apra, T.L. Windus, W.A. de Jong
                 "NWChem: a comprehensive and scalable open-source
                  solution for large scale molecular simulations"
                      Comput. Phys. Commun. 181, 1477 (2010)
                           doi:10.1016/j.cpc.2010.04.018

                                      AUTHORS
                                      -------
          E. Apra, E. J. Bylaska, W. A. de Jong, N. Govind, K. Kowalski,
       T. P. Straatsma, M. Valiev, H. J. J. van Dam, D. Wang, T. L. Windus,
        J. Hammond, J. Autschbach, K. Bhaskaran-Nair, J. Brabec, K. Lopata,
    S. A. Fischer, S. Krishnamoorthy, M. Jacquelin, W. Ma, M. Klemm, O. Villa,
      Y. Chen, V. Anisimov, F. Aquino, S. Hirata, M. T. Hackler, V. Konjkov,
      T. Risthaus, M. Malagoli, A. Marenich, A. Otero-de-la-Roza, J. Mullin,
        P. Nichols, R. Peverati, J. Pittner, Y. Zhao, P.-D. Fan, A. Fonari,
       M. Williamson, R. J. Harrison, J. R. Rehr, M. Dupuis, D. Silverstein,
    D. M. A. Smith, J. Nieplocha, V. Tipparaju, M. Krishnan, B. E. Van Kuiken,
        A. Vazquez-Mayagoitia, L. Jensen, M. Swart, Q. Wu, T. Van Voorhis,
     A. A. Auer, M. Nooijen, L. D. Crosby, E. Brown, G. Cisneros, G. I. Fann,
   H. Fruchtl, J. Garza, K. Hirao, R. A. Kendall, J. A. Nichols, K. Tsemekhman,
    K. Wolinski, J. Anchell, D. E. Bernholdt, P. Borowski, T. Clark, D. Clerc,
   H. Dachsel, M. J. O. Deegan, K. Dyall, D. Elwood, E. Glendening, M. Gutowski,
   A. C. Hess, J. Jaffe, B. G. Johnson, J. Ju, R. Kobayashi, R. Kutteh, Z. Lin,
   R. Littlefield, X. Long, B. Meng, T. Nakajima, S. Niu, L. Pollack, M. Rosing,
   K. Glaesemann, G. Sandrone, M. Stave, H. Taylor, G. Thomas, J. H. van Lenthe,
                               A. T. Wong, Z. Zhang.

 Total times  cpu:        0.0s     wall:        0.2s
