 argument  1 = wfn1_be.nw



============================== echo of input deck ==============================
echo
start wfn1_be_dat

geometry
  be 0 0 0
end
basis
  * library 6-31g*
# * library 6-31g
end

set wfn1:t_bath 0.0
set wfn1:maxit  200
set wfn1:print_error T

task wfn1 energy

#set wfn1:conv_tol 1.0d-8
set wfn1:t_bath 0.5
set wfn1:maxit 2000
set wfn1:print_error T

task wfn1 energy
================================================================================


                                         
                                         


              Northwest Computational Chemistry Package (NWChem) 6.8
              ------------------------------------------------------


                    Environmental Molecular Sciences Laboratory
                       Pacific Northwest National Laboratory
                                Richland, WA 99352

                              Copyright (c) 1994-2015
                       Pacific Northwest National Laboratory
                            Battelle Memorial Institute

             NWChem is an open-source computational chemistry package
                        distributed under the terms of the
                      Educational Community License (ECL) 2.0
             A copy of the license is included with this distribution
                              in the LICENSE.TXT file

                                  ACKNOWLEDGMENT
                                  --------------

            This software and its documentation were developed at the
            EMSL at Pacific Northwest National Laboratory, a multiprogram
            national laboratory, operated for the U.S. Department of Energy
            by Battelle under Contract Number DE-AC05-76RL01830. Support
            for this work was provided by the Department of Energy Office
            of Biological and Environmental Research, Office of Basic
            Energy Sciences, and the Office of Advanced Scientific Computing.


           Job information
           ---------------

    hostname        = erato
    program         = ../../../bin/LINUX64/nwchem
    date            = Sun Apr 22 21:23:48 2018

    compiled        = Sun_Apr_22_21:22:26_2018
    source          = /home/hvandam/nwchem-1-wfn1
    nwchem branch   = Development
    nwchem revision = nwchem_on_git-51-gcccac83fc2a4226c5c513281d68ab773edcb0a0d
    ga revision     = nwchem_on_git-43-g1da910a
    use scalapack   = F
    input           = wfn1_be.nw
    prefix          = wfn1_be_dat.
    data base       = ./wfn1_be_dat.db
    status          = startup
    nproc           =        1
    time left       =     -1s



           Memory information
           ------------------

    heap     =   13107198 doubles =    100.0 Mbytes
    stack    =   13107195 doubles =    100.0 Mbytes
    global   =   26214400 doubles =    200.0 Mbytes (distinct from heap & stack)
    total    =   52428793 doubles =    400.0 Mbytes
    verify   = yes
    hardfail = no 


           Directory information
           ---------------------

  0 permanent = .
  0 scratch   = .




                                NWChem Input Module
                                -------------------



 Scaling coordinates for geometry "geometry" by  1.889725989
 (inverse scale =  0.529177249)



                             Geometry "geometry" -> ""
                             -------------------------

 Output coordinates in angstroms (scale by  1.889725989 to convert to a.u.)

  No.       Tag          Charge          X              Y              Z
 ---- ---------------- ---------- -------------- -------------- --------------
    1 be                   4.0000     0.00000000     0.00000000     0.00000000

      Atomic Mass 
      ----------- 

      be                 9.012180


 Effective nuclear repulsion energy (a.u.)       0.0000000000

            Nuclear Dipole moment (a.u.) 
            ----------------------------
        X                 Y               Z
 ---------------- ---------------- ----------------
     0.0000000000     0.0000000000     0.0000000000


            XYZ format geometry
            -------------------
     1
 geometry
 be                    0.00000000     0.00000000     0.00000000



 Summary of "ao basis" -> "" (cartesian)
 ------------------------------------------------------------------------------
       Tag                 Description            Shells   Functions and Types
 ---------------- ------------------------------  ------  ---------------------
 *                           6-31g*                   on all atoms 



                                NWChem WFN1 Module
                                ------------------


                      Basis "ao basis" -> "ao basis" (cartesian)
                      -----
  be (Beryllium)
  --------------
            Exponent  Coefficients 
       -------------- ---------------------------------------------------------
  1 S  1.26458570E+03  0.001945
  1 S  1.89936810E+02  0.014835
  1 S  4.31590890E+01  0.072091
  1 S  1.20986630E+01  0.237154
  1 S  3.80632320E+00  0.469199
  1 S  1.27289030E+00  0.356520

  2 S  3.19646310E+00 -0.112649
  2 S  7.47813300E-01 -0.229506
  2 S  2.19966300E-01  1.186917

  3 P  3.19646310E+00  0.055980
  3 P  7.47813300E-01  0.261551
  3 P  2.19966300E-01  0.793972

  4 S  8.23099000E-02  1.000000

  5 P  8.23099000E-02  1.000000

  6 D  4.00000000E-01  1.000000



 Summary of "ao basis" -> "ao basis" (cartesian)
 ------------------------------------------------------------------------------
       Tag                 Description            Shells   Functions and Types
 ---------------- ------------------------------  ------  ---------------------
 be                          6-31g*                  6       15   3s2p1d



      Superposition of Atomic Density Guess
      -------------------------------------

 Sum of atomic energies:         -14.56676403

      Non-variational initial energy
      ------------------------------

 Total energy =     -14.566764
 1-e energy   =     -19.117157
 2-e energy   =       4.550393
 HOMO         =      -0.301367
 LUMO         =       0.082435

 iteration              energy           error          err Na          err Nb          err Ca          err Cb
 ---------              ------           -----          ------          ------          ------          ------
         1        -14.56694411        0.000001        0.000000        0.000000        0.000000        0.000000

 Reached Convergence

 WFN1                     :
 --------------------------
 Total WFN1 energy =         -14.5669441117
 1-Electron energy =         -19.1122701590
 2-Electron energy =           4.5453260473
 Entropy energy    =           0.0000000000
 Nuclear energy    =           0.0000000000

 conventional Hartree-Fock:
 --------------------------
 Total SCF energy  =         -14.5669441117
 2-Electron energy =           4.5453260473


      Natural orbital occupation numbers

          Alpha     Beta
         ------   ------
     2   1.0000   1.0000
     3   0.0000   0.0000

                     WFN1 Final Correlation function energies
                     ----------------------------------------

              alpha       beta  
            --------    --------
       1     -4.7093     -4.7093
       2     -0.3015     -0.3015
       3      0.0822      0.0822
       4      0.0823      0.0823
       5      0.2375      0.2375
       6      0.4389      0.4389
       7      0.4759      0.4759
       8      0.5159      0.5159
       9      0.7638      0.7638
      10      0.7976      0.7976
      11      0.9479      0.9479
      12      0.9996      0.9996
      13      1.0390      1.0390
      14      1.0426      1.0426
      15      2.8505      2.8505

                  WFN1 Final alpha Correlation Function Analysis
                  ----------------------------------------------


 global array: Ca[1:15,1:15],  handle: -984 

            1           2           3           4           5           6  
       ----------- ----------- ----------- ----------- ----------- -----------
   1       1.00000     0.00000     0.00000     0.00000     0.00000     0.00000
   2       0.00000     1.00000     0.00000     0.00000     0.00000     0.00000
   3       0.00000     0.00000     1.00000     0.00000     0.00000     0.00000
   4       0.00000     0.00000     0.00000     1.00000     0.00000     0.00000
   5       0.00000     0.00000     0.00000     0.00000     1.00000     0.00000
   6       0.00000     0.00000     0.00000     0.00000     0.00000     1.00000
   7       0.00000     0.00000     0.00000     0.00000     0.00000     0.00000
   8       0.00000     0.00000     0.00000     0.00000     0.00000     0.00000
   9       0.00000     0.00000     0.00000     0.00000     0.00000     0.00000
  10       0.00000     0.00000     0.00000     0.00000     0.00000     0.00000
  11       0.00000     0.00000     0.00000     0.00000     0.00000     0.00000
  12       0.00000     0.00000     0.00000     0.00000     0.00000     0.00000
  13       0.00000     0.00000     0.00000     0.00000     0.00000     0.00000
  14       0.00000     0.00000     0.00000     0.00000     0.00000     0.00000
  15       0.00000     0.00000     0.00000     0.00000     0.00000     0.00000

            7           8           9          10          11          12  
       ----------- ----------- ----------- ----------- ----------- -----------
   1       0.00000     0.00000     0.00000     0.00000     0.00000     0.00000
   2       0.00000     0.00000     0.00000     0.00000     0.00000     0.00000
   3       0.00000     0.00000     0.00000     0.00000     0.00000     0.00000
   4       0.00000     0.00000     0.00000     0.00000     0.00000     0.00000
   5       0.00000     0.00000     0.00000     0.00000     0.00000     0.00000
   6       0.00000     0.00000     0.00000     0.00000     0.00000     0.00000
   7       0.00000     0.00000     0.00000     1.00000     0.00000     0.00000
   8       1.00000     0.00000     0.00000     0.00000     0.00000     0.00000
   9       0.00000     1.00000     0.00000     0.00000     0.00000     0.00000
  10       0.00000     0.00000     1.00000     0.00000     0.00000     0.00000
  11       0.00000     0.00000     0.00000     0.00000     0.00000     1.00000
  12       0.00000     0.00000     0.00000     0.00000     1.00000     0.00000
  13       0.00000     0.00000     0.00000     0.00000     0.00000     0.00000
  14       0.00000     0.00000     0.00000     0.00000     0.00000     0.00000
  15       0.00000     0.00000     0.00000     0.00000     0.00000     0.00000

           13          14          15  
       ----------- ----------- -----------
   1       0.00000     0.00000     0.00000
   2       0.00000     0.00000     0.00000
   3       0.00000     0.00000     0.00000
   4       0.00000     0.00000     0.00000
   5       0.00000     0.00000     0.00000
   6       0.00000     0.00000     0.00000
   7       0.00000     0.00000     0.00000
   8       0.00000     0.00000     0.00000
   9       0.00000     0.00000     0.00000
  10       0.00000     0.00000     0.00000
  11       0.00000     0.00000     0.00000
  12       0.00000     0.00000     0.00000
  13       1.00000     0.00000     0.00000
  14       0.00000     1.00000     0.00000
  15       0.00000     0.00000     1.00000

                   WFN1 Final beta Correlation Function Analysis
                   ---------------------------------------------


 global array: Cb[1:15,1:15],  handle: -983 

            1           2           3           4           5           6  
       ----------- ----------- ----------- ----------- ----------- -----------
   1       1.00000     0.00000     0.00000     0.00000     0.00000     0.00000
   2       0.00000     1.00000     0.00000     0.00000     0.00000     0.00000
   3       0.00000     0.00000     1.00000     0.00000     0.00000     0.00000
   4       0.00000     0.00000     0.00000     1.00000     0.00000     0.00000
   5       0.00000     0.00000     0.00000     0.00000     1.00000     0.00000
   6       0.00000     0.00000     0.00000     0.00000     0.00000     1.00000
   7       0.00000     0.00000     0.00000     0.00000     0.00000     0.00000
   8       0.00000     0.00000     0.00000     0.00000     0.00000     0.00000
   9       0.00000     0.00000     0.00000     0.00000     0.00000     0.00000
  10       0.00000     0.00000     0.00000     0.00000     0.00000     0.00000
  11       0.00000     0.00000     0.00000     0.00000     0.00000     0.00000
  12       0.00000     0.00000     0.00000     0.00000     0.00000     0.00000
  13       0.00000     0.00000     0.00000     0.00000     0.00000     0.00000
  14       0.00000     0.00000     0.00000     0.00000     0.00000     0.00000
  15       0.00000     0.00000     0.00000     0.00000     0.00000     0.00000

            7           8           9          10          11          12  
       ----------- ----------- ----------- ----------- ----------- -----------
   1       0.00000     0.00000     0.00000     0.00000     0.00000     0.00000
   2       0.00000     0.00000     0.00000     0.00000     0.00000     0.00000
   3       0.00000     0.00000     0.00000     0.00000     0.00000     0.00000
   4       0.00000     0.00000     0.00000     0.00000     0.00000     0.00000
   5       0.00000     0.00000     0.00000     0.00000     0.00000     0.00000
   6       0.00000     0.00000     0.00000     0.00000     0.00000     0.00000
   7       0.00000     0.00000     0.00000     1.00000     0.00000     0.00000
   8       1.00000     0.00000     0.00000     0.00000     0.00000     0.00000
   9       0.00000     1.00000     0.00000     0.00000     0.00000     0.00000
  10       0.00000     0.00000     1.00000     0.00000     0.00000     0.00000
  11       0.00000     0.00000     0.00000     0.00000     0.00000     1.00000
  12       0.00000     0.00000     0.00000     0.00000     1.00000     0.00000
  13       0.00000     0.00000     0.00000     0.00000     0.00000     0.00000
  14       0.00000     0.00000     0.00000     0.00000     0.00000     0.00000
  15       0.00000     0.00000     0.00000     0.00000     0.00000     0.00000

           13          14          15  
       ----------- ----------- -----------
   1       0.00000     0.00000     0.00000
   2       0.00000     0.00000     0.00000
   3       0.00000     0.00000     0.00000
   4       0.00000     0.00000     0.00000
   5       0.00000     0.00000     0.00000
   6       0.00000     0.00000     0.00000
   7       0.00000     0.00000     0.00000
   8       0.00000     0.00000     0.00000
   9       0.00000     0.00000     0.00000
  10       0.00000     0.00000     0.00000
  11       0.00000     0.00000     0.00000
  12       0.00000     0.00000     0.00000
  13       1.00000     0.00000     0.00000
  14       0.00000     1.00000     0.00000
  15       0.00000     0.00000     1.00000

                     WFN1 Final Alpha Natural Orbital Analysis
                     -----------------------------------------

 Vector    1  Occ=1.000000D+00  E=-4.709277D+00
              MO Center=  1.4D-19,  2.3D-17, -5.7D-17, r^2= 6.5D-02
   Bfn.  Coefficient  Atom+Function         Bfn.  Coefficient  Atom+Function  
  ----- ------------  ---------------      ----- ------------  ---------------
     1     -0.998420  1 Be s          

 Vector    2  Occ=1.000000D+00  E=-3.015317D-01
              MO Center= -2.0D-16, -2.3D-17,  4.8D-17, r^2= 2.1D+00
   Bfn.  Coefficient  Atom+Function         Bfn.  Coefficient  Atom+Function  
  ----- ------------  ---------------      ----- ------------  ---------------
     6     -0.763981  1 Be s                  2     -0.252954  1 Be s          
     1      0.220946  1 Be s          

 Vector    3  Occ=0.000000D+00  E= 8.224766D-02
              MO Center= -4.2D-13,  1.7D-12,  2.1D-12, r^2= 3.4D+00
   Bfn.  Coefficient  Atom+Function         Bfn.  Coefficient  Atom+Function  
  ----- ------------  ---------------      ----- ------------  ---------------
     7     -0.802738  1 Be px                 3     -0.263804  1 Be px         
     8     -0.039189  1 Be py         

 Vector    4  Occ=0.000000D+00  E= 8.227036D-02
              MO Center=  3.0D-04,  2.7D-03,  1.7D-03, r^2= 3.5D+00
   Bfn.  Coefficient  Atom+Function         Bfn.  Coefficient  Atom+Function  
  ----- ------------  ---------------      ----- ------------  ---------------
     8     -0.803095  1 Be py                 4     -0.259451  1 Be py         
     9      0.066900  1 Be pz                 7      0.035420  1 Be px         

 Vector    5  Occ=0.000000D+00  E= 2.375025D-01
              MO Center=  7.6D-02,  1.1D-01, -1.9D-01, r^2= 2.7D+00
   Bfn.  Coefficient  Atom+Function         Bfn.  Coefficient  Atom+Function  
  ----- ------------  ---------------      ----- ------------  ---------------
     9     -0.581459  1 Be pz                 5     -0.384289  1 Be pz         
     8     -0.301687  1 Be py                14     -0.294558  1 Be dyz        
     4      0.283594  1 Be py                 3      0.276146  1 Be px         
    13     -0.267294  1 Be dyy                7     -0.208048  1 Be px         
    15      0.197185  1 Be dzz               12     -0.159970  1 Be dxz        

 Vector    6  Occ=0.000000D+00  E= 4.389441D-01
              MO Center=  3.6D-13,  2.8D-12,  7.9D-13, r^2= 3.8D+00
   Bfn.  Coefficient  Atom+Function         Bfn.  Coefficient  Atom+Function  
  ----- ------------  ---------------      ----- ------------  ---------------
     2     -2.136593  1 Be s                  6      1.906217  1 Be s          
    10      0.050425  1 Be dxx               13      0.050425  1 Be dyy        
    15      0.050425  1 Be dzz        

 Vector    7  Occ=0.000000D+00  E= 4.759321D-01
              MO Center= -1.2D-01, -5.4D-02, -7.8D-03, r^2= 2.0D+00
   Bfn.  Coefficient  Atom+Function         Bfn.  Coefficient  Atom+Function  
  ----- ------------  ---------------      ----- ------------  ---------------
    14      1.023989  1 Be dyz                3      0.814874  1 Be px         
     7     -0.665204  1 Be px                12      0.447739  1 Be dxz        
    10     -0.353175  1 Be dxx                4     -0.327959  1 Be py         
     8      0.262584  1 Be py                15      0.256669  1 Be dzz        
    11     -0.108730  1 Be dxy               13      0.096506  1 Be dyy        

 Vector    8  Occ=0.000000D+00  E= 5.158589D-01
              MO Center= -1.8D-02, -8.1D-03,  5.0D-02, r^2= 3.5D+00
   Bfn.  Coefficient  Atom+Function         Bfn.  Coefficient  Atom+Function  
  ----- ------------  ---------------      ----- ------------  ---------------
     5     -1.177998  1 Be pz                 9      1.108868  1 Be pz         
     4      0.413744  1 Be py                 8     -0.325138  1 Be py         
    14      0.174260  1 Be dyz               13      0.130560  1 Be dyy        
    12      0.104407  1 Be dxz               15     -0.093115  1 Be dzz        
     3      0.057123  1 Be px                 7     -0.049705  1 Be px         

 Vector    9  Occ=0.000000D+00  E= 7.637608D-01
              MO Center=  4.0D-02,  1.3D-01, -7.0D-02, r^2= 2.6D+00
   Bfn.  Coefficient  Atom+Function         Bfn.  Coefficient  Atom+Function  
  ----- ------------  ---------------      ----- ------------  ---------------
     4     -1.059066  1 Be py                 8      0.853103  1 Be py         
     5     -0.504869  1 Be pz                 3     -0.449239  1 Be px         
     7      0.370375  1 Be px                13     -0.272814  1 Be dyy        
     9      0.269326  1 Be pz                15      0.235636  1 Be dzz        
    11     -0.129780  1 Be dxy               12     -0.115472  1 Be dxz        

 Vector   10  Occ=0.000000D+00  E= 7.975868D-01
              MO Center= -9.6D-02, -3.1D-02, -3.1D-03, r^2= 2.2D+00
   Bfn.  Coefficient  Atom+Function         Bfn.  Coefficient  Atom+Function  
  ----- ------------  ---------------      ----- ------------  ---------------
    14      1.077006  1 Be dyz                3     -0.776122  1 Be px         
     7      0.639582  1 Be px                12      0.500617  1 Be dxz        
    11     -0.355851  1 Be dxy                4      0.318670  1 Be py         
     9     -0.296059  1 Be pz                 8     -0.281958  1 Be py         
    10      0.122852  1 Be dxx               15     -0.092078  1 Be dzz        

 Vector   11  Occ=0.000000D+00  E= 9.479091D-01
              MO Center=  9.7D-02,  3.3D-02,  6.2D-03, r^2= 1.4D+00
   Bfn.  Coefficient  Atom+Function         Bfn.  Coefficient  Atom+Function  
  ----- ------------  ---------------      ----- ------------  ---------------
    10     -0.767254  1 Be dxx               13      0.756016  1 Be dyy        
    11     -0.498566  1 Be dxy               14     -0.402262  1 Be dyz        
     3     -0.288006  1 Be px                 7      0.239703  1 Be px         
     9     -0.165955  1 Be pz                 4     -0.064264  1 Be py         
     5     -0.043999  1 Be pz                 8      0.034146  1 Be py         

 Vector   12  Occ=0.000000D+00  E= 9.995810D-01
              MO Center=  1.2D-02, -6.2D-02,  2.2D-01, r^2= 1.4D+00
   Bfn.  Coefficient  Atom+Function         Bfn.  Coefficient  Atom+Function  
  ----- ------------  ---------------      ----- ------------  ---------------
    15      0.867150  1 Be dzz               10     -0.474977  1 Be dxx        
    12     -0.448244  1 Be dxz               13     -0.392173  1 Be dyy        
     4      0.385607  1 Be py                 8     -0.294858  1 Be py         
     3     -0.251052  1 Be px                 7      0.200711  1 Be px         
     9      0.143948  1 Be pz                11      0.130341  1 Be dxy        

 Vector   13  Occ=0.000000D+00  E= 1.039005D+00
              MO Center= -5.7D-02, -4.5D-02, -4.5D-02, r^2= 1.3D+00
   Bfn.  Coefficient  Atom+Function         Bfn.  Coefficient  Atom+Function  
  ----- ------------  ---------------      ----- ------------  ---------------
    11      1.365777  1 Be dxy               12      0.928107  1 Be dxz        
    14     -0.222388  1 Be dyz                3     -0.204441  1 Be px         
    10     -0.185294  1 Be dxx                7      0.169732  1 Be px         
    15      0.101723  1 Be dzz                9     -0.093822  1 Be pz         
    13      0.083571  1 Be dyy                4     -0.051505  1 Be py         

 Vector   14  Occ=0.000000D+00  E= 1.042621D+00
              MO Center=  6.5D-02, -6.9D-02,  3.5D-02, r^2= 1.3D+00
   Bfn.  Coefficient  Atom+Function         Bfn.  Coefficient  Atom+Function  
  ----- ------------  ---------------      ----- ------------  ---------------
    12     -1.198657  1 Be dxz               11      0.842332  1 Be dxy        
    14      0.670903  1 Be dyz               13      0.307354  1 Be dyy        
    15     -0.245231  1 Be dzz                9     -0.127592  1 Be pz         
     3     -0.072598  1 Be px                 4     -0.072826  1 Be py         
     7      0.062539  1 Be px                10     -0.062123  1 Be dxx        

 Vector   15  Occ=0.000000D+00  E= 2.850475D+00
              MO Center= -3.0D-15,  1.7D-14, -3.8D-15, r^2= 8.6D-01
   Bfn.  Coefficient  Atom+Function         Bfn.  Coefficient  Atom+Function  
  ----- ------------  ---------------      ----- ------------  ---------------
     2      6.711756  1 Be s                 10     -2.845211  1 Be dxx        
    13     -2.845211  1 Be dyy               15     -2.845211  1 Be dzz        
     6     -0.440369  1 Be s                  1     -0.310942  1 Be s          


                     WFN1 Final Beta Natural Orbital Analysis
                     ----------------------------------------

 Vector    1  Occ=1.000000D+00  E=-4.709277D+00
              MO Center=  1.4D-19,  2.3D-17, -5.7D-17, r^2= 6.5D-02
   Bfn.  Coefficient  Atom+Function         Bfn.  Coefficient  Atom+Function  
  ----- ------------  ---------------      ----- ------------  ---------------
     1     -0.998420  1 Be s          

 Vector    2  Occ=1.000000D+00  E=-3.015317D-01
              MO Center= -2.0D-16, -2.3D-17,  4.8D-17, r^2= 2.1D+00
   Bfn.  Coefficient  Atom+Function         Bfn.  Coefficient  Atom+Function  
  ----- ------------  ---------------      ----- ------------  ---------------
     6     -0.763981  1 Be s                  2     -0.252954  1 Be s          
     1      0.220946  1 Be s          

 Vector    3  Occ=0.000000D+00  E= 8.224766D-02
              MO Center= -4.2D-13,  1.7D-12,  2.1D-12, r^2= 3.4D+00
   Bfn.  Coefficient  Atom+Function         Bfn.  Coefficient  Atom+Function  
  ----- ------------  ---------------      ----- ------------  ---------------
     7     -0.802738  1 Be px                 3     -0.263804  1 Be px         
     8     -0.039189  1 Be py         

 Vector    4  Occ=0.000000D+00  E= 8.227036D-02
              MO Center=  3.0D-04,  2.7D-03,  1.7D-03, r^2= 3.5D+00
   Bfn.  Coefficient  Atom+Function         Bfn.  Coefficient  Atom+Function  
  ----- ------------  ---------------      ----- ------------  ---------------
     8     -0.803095  1 Be py                 4     -0.259451  1 Be py         
     9      0.066900  1 Be pz                 7      0.035420  1 Be px         

 Vector    5  Occ=0.000000D+00  E= 2.375025D-01
              MO Center=  7.6D-02,  1.1D-01, -1.9D-01, r^2= 2.7D+00
   Bfn.  Coefficient  Atom+Function         Bfn.  Coefficient  Atom+Function  
  ----- ------------  ---------------      ----- ------------  ---------------
     9     -0.581459  1 Be pz                 5     -0.384289  1 Be pz         
     8     -0.301687  1 Be py                14     -0.294558  1 Be dyz        
     4      0.283594  1 Be py                 3      0.276146  1 Be px         
    13     -0.267294  1 Be dyy                7     -0.208048  1 Be px         
    15      0.197185  1 Be dzz               12     -0.159970  1 Be dxz        

 Vector    6  Occ=0.000000D+00  E= 4.389441D-01
              MO Center=  3.6D-13,  2.8D-12,  7.9D-13, r^2= 3.8D+00
   Bfn.  Coefficient  Atom+Function         Bfn.  Coefficient  Atom+Function  
  ----- ------------  ---------------      ----- ------------  ---------------
     2     -2.136593  1 Be s                  6      1.906217  1 Be s          
    10      0.050425  1 Be dxx               13      0.050425  1 Be dyy        
    15      0.050425  1 Be dzz        

 Vector    7  Occ=0.000000D+00  E= 4.759321D-01
              MO Center= -1.2D-01, -5.4D-02, -7.8D-03, r^2= 2.0D+00
   Bfn.  Coefficient  Atom+Function         Bfn.  Coefficient  Atom+Function  
  ----- ------------  ---------------      ----- ------------  ---------------
    14      1.023989  1 Be dyz                3      0.814874  1 Be px         
     7     -0.665204  1 Be px                12      0.447739  1 Be dxz        
    10     -0.353175  1 Be dxx                4     -0.327959  1 Be py         
     8      0.262584  1 Be py                15      0.256669  1 Be dzz        
    11     -0.108730  1 Be dxy               13      0.096506  1 Be dyy        

 Vector    8  Occ=0.000000D+00  E= 5.158589D-01
              MO Center= -1.8D-02, -8.1D-03,  5.0D-02, r^2= 3.5D+00
   Bfn.  Coefficient  Atom+Function         Bfn.  Coefficient  Atom+Function  
  ----- ------------  ---------------      ----- ------------  ---------------
     5     -1.177998  1 Be pz                 9      1.108868  1 Be pz         
     4      0.413744  1 Be py                 8     -0.325138  1 Be py         
    14      0.174260  1 Be dyz               13      0.130560  1 Be dyy        
    12      0.104407  1 Be dxz               15     -0.093115  1 Be dzz        
     3      0.057123  1 Be px                 7     -0.049705  1 Be px         

 Vector    9  Occ=0.000000D+00  E= 7.637608D-01
              MO Center=  4.0D-02,  1.3D-01, -7.0D-02, r^2= 2.6D+00
   Bfn.  Coefficient  Atom+Function         Bfn.  Coefficient  Atom+Function  
  ----- ------------  ---------------      ----- ------------  ---------------
     4     -1.059066  1 Be py                 8      0.853103  1 Be py         
     5     -0.504869  1 Be pz                 3     -0.449239  1 Be px         
     7      0.370375  1 Be px                13     -0.272814  1 Be dyy        
     9      0.269326  1 Be pz                15      0.235636  1 Be dzz        
    11     -0.129780  1 Be dxy               12     -0.115472  1 Be dxz        

 Vector   10  Occ=0.000000D+00  E= 7.975868D-01
              MO Center= -9.6D-02, -3.1D-02, -3.1D-03, r^2= 2.2D+00
   Bfn.  Coefficient  Atom+Function         Bfn.  Coefficient  Atom+Function  
  ----- ------------  ---------------      ----- ------------  ---------------
    14      1.077006  1 Be dyz                3     -0.776122  1 Be px         
     7      0.639582  1 Be px                12      0.500617  1 Be dxz        
    11     -0.355851  1 Be dxy                4      0.318670  1 Be py         
     9     -0.296059  1 Be pz                 8     -0.281958  1 Be py         
    10      0.122852  1 Be dxx               15     -0.092078  1 Be dzz        

 Vector   11  Occ=0.000000D+00  E= 9.479091D-01
              MO Center=  9.7D-02,  3.3D-02,  6.2D-03, r^2= 1.4D+00
   Bfn.  Coefficient  Atom+Function         Bfn.  Coefficient  Atom+Function  
  ----- ------------  ---------------      ----- ------------  ---------------
    10     -0.767254  1 Be dxx               13      0.756016  1 Be dyy        
    11     -0.498566  1 Be dxy               14     -0.402262  1 Be dyz        
     3     -0.288006  1 Be px                 7      0.239703  1 Be px         
     9     -0.165955  1 Be pz                 4     -0.064264  1 Be py         
     5     -0.043999  1 Be pz                 8      0.034146  1 Be py         

 Vector   12  Occ=0.000000D+00  E= 9.995810D-01
              MO Center=  1.2D-02, -6.2D-02,  2.2D-01, r^2= 1.4D+00
   Bfn.  Coefficient  Atom+Function         Bfn.  Coefficient  Atom+Function  
  ----- ------------  ---------------      ----- ------------  ---------------
    15      0.867150  1 Be dzz               10     -0.474977  1 Be dxx        
    12     -0.448244  1 Be dxz               13     -0.392173  1 Be dyy        
     4      0.385607  1 Be py                 8     -0.294858  1 Be py         
     3     -0.251052  1 Be px                 7      0.200711  1 Be px         
     9      0.143948  1 Be pz                11      0.130341  1 Be dxy        

 Vector   13  Occ=0.000000D+00  E= 1.039005D+00
              MO Center= -5.7D-02, -4.5D-02, -4.5D-02, r^2= 1.3D+00
   Bfn.  Coefficient  Atom+Function         Bfn.  Coefficient  Atom+Function  
  ----- ------------  ---------------      ----- ------------  ---------------
    11      1.365777  1 Be dxy               12      0.928107  1 Be dxz        
    14     -0.222388  1 Be dyz                3     -0.204441  1 Be px         
    10     -0.185294  1 Be dxx                7      0.169732  1 Be px         
    15      0.101723  1 Be dzz                9     -0.093822  1 Be pz         
    13      0.083571  1 Be dyy                4     -0.051505  1 Be py         

 Vector   14  Occ=0.000000D+00  E= 1.042621D+00
              MO Center=  6.5D-02, -6.9D-02,  3.5D-02, r^2= 1.3D+00
   Bfn.  Coefficient  Atom+Function         Bfn.  Coefficient  Atom+Function  
  ----- ------------  ---------------      ----- ------------  ---------------
    12     -1.198657  1 Be dxz               11      0.842332  1 Be dxy        
    14      0.670903  1 Be dyz               13      0.307354  1 Be dyy        
    15     -0.245231  1 Be dzz                9     -0.127592  1 Be pz         
     3     -0.072598  1 Be px                 4     -0.072826  1 Be py         
     7      0.062539  1 Be px                10     -0.062123  1 Be dxx        

 Vector   15  Occ=0.000000D+00  E= 2.850475D+00
              MO Center= -3.0D-15,  1.7D-14, -3.8D-15, r^2= 8.6D-01
   Bfn.  Coefficient  Atom+Function         Bfn.  Coefficient  Atom+Function  
  ----- ------------  ---------------      ----- ------------  ---------------
     2      6.711756  1 Be s                 10     -2.845211  1 Be dxx        
    13     -2.845211  1 Be dyy               15     -2.845211  1 Be dzz        
     6     -0.440369  1 Be s                  1     -0.310942  1 Be s          


 Task  times  cpu:        0.6s     wall:        0.6s


                                NWChem Input Module
                                -------------------



                                NWChem WFN1 Module
                                ------------------



      Superposition of Atomic Density Guess
      -------------------------------------

 Sum of atomic energies:         -14.56676403

      Non-variational initial energy
      ------------------------------

 Total energy =     -14.566764
 1-e energy   =     -19.117157
 2-e energy   =       4.550393
 HOMO         =      -0.301367
 LUMO         =       0.082435

 iteration              energy           error          err Na          err Nb          err Ca          err Cb
 ---------              ------           -----          ------          ------          ------          ------
         1        -16.52138232        3.511242        0.000348        0.000348        1.755273        1.755273
         2        -16.52232540        3.516400        0.001378        0.001378        1.756822        1.756822
         3        -16.53883359        0.716846        0.001385        0.001385        0.357038        0.357038
         4        -16.53954351        0.713974        0.000292        0.000292        0.356695        0.356695
         5        -16.54900113        0.558579        0.000308        0.000308        0.278981        0.278981
         6        -16.54945936        0.560477        0.000739        0.000739        0.279499        0.279499
         7        -16.55448553        0.297594        0.000740        0.000740        0.148057        0.148057
         8        -16.55491549        0.296570        0.000273        0.000273        0.148013        0.148013
         9        -16.55712161        0.185369        0.000277        0.000277        0.092408        0.092408
        10        -16.55748684        0.186428        0.000595        0.000595        0.092619        0.092619
        11        -16.55861672        0.135481        0.000594        0.000594        0.067147        0.067147
        12        -16.55895216        0.134753        0.000240        0.000240        0.067137        0.067137
        13        -16.55960329        0.090373        0.000241        0.000241        0.044945        0.044945
        14        -16.55992160        0.091115        0.000523        0.000523        0.045035        0.045035
        15        -16.56036895        0.067276        0.000522        0.000522        0.033116        0.033116
        16        -16.56066438        0.066661        0.000209        0.000209        0.033122        0.033122
        17        -16.56097410        0.043319        0.000209        0.000209        0.021450        0.021450
        18        -16.56125059        0.043860        0.000455        0.000455        0.021475        0.021475
        19        -16.56146578        0.032168        0.000455        0.000455        0.015629        0.015629
        20        -16.56172219        0.031643        0.000181        0.000181        0.015641        0.015641
        21        -16.56187187        0.020634        0.000181        0.000181        0.010136        0.010136
        22        -16.56211388        0.021057        0.000398        0.000398        0.010130        0.010130
        23        -16.56221845        0.015716        0.000399        0.000399        0.007459        0.007459
        24        -16.56244296        0.015254        0.000156        0.000156        0.007471        0.007471
        25        -16.56251601        0.010331        0.000156        0.000156        0.005009        0.005009
        26        -16.56272794        0.010677        0.000349        0.000349        0.004990        0.004990
        27        -16.56277927        0.008298        0.000349        0.000349        0.003800        0.003800
        28        -16.56297571        0.007891        0.000134        0.000134        0.003811        0.003811
        29        -16.56297571        0.005736        0.000134        0.000134        0.002734        0.002734
        30        -16.56316036        0.006023        0.000303        0.000303        0.002708        0.002708
        31        -16.56319721        0.004631        0.000304        0.000304        0.002011        0.002011
        32        -16.56336833        0.004271        0.000115        0.000115        0.002021        0.002021
        33        -16.56339473        0.003603        0.000115        0.000115        0.001687        0.001687
        34        -16.56355625        0.003848        0.000265        0.000265        0.001659        0.001659
        35        -16.56357388        0.003275        0.000265        0.000265        0.001372        0.001372
        36        -16.56372333        0.002956        0.000098        0.000098        0.001380        0.001380
        37        -16.56373626        0.002635        0.000099        0.000099        0.001219        0.001219
        38        -16.56387710        0.002844        0.000231        0.000231        0.001191        0.001191
        39        -16.56387710        0.002819        0.000231        0.000231        0.001179        0.001179
        40        -16.56400702        0.002540        0.000084        0.000084        0.001186        0.001186
        41        -16.56401638        0.002287        0.000084        0.000084        0.001059        0.001059
        42        -16.56413894        0.002464        0.000200        0.000200        0.001032        0.001032
        43        -16.56414583        0.002270        0.000201        0.000201        0.000934        0.000934
        44        -16.56425888        0.002023        0.000071        0.000071        0.000940        0.000940
        45        -16.56426372        0.001904        0.000071        0.000071        0.000881        0.000881
        46        -16.56437015        0.002056        0.000174        0.000174        0.000854        0.000854
        47        -16.56437396        0.001935        0.000174        0.000174        0.000794        0.000794
        48        -16.56447195        0.001718        0.000061        0.000061        0.000799        0.000799
        49        -16.56447454        0.001658        0.000061        0.000061        0.000769        0.000769
        50        -16.56456670        0.001789        0.000150        0.000150        0.000744        0.000744
        51        -16.56456890        0.001703        0.000150        0.000150        0.000701        0.000701
        52        -16.56465361        0.001513        0.000051        0.000051        0.000706        0.000706
        53        -16.56465499        0.001482        0.000051        0.000051        0.000690        0.000690
        54        -16.56473459        0.001593        0.000129        0.000129        0.000667        0.000667
        55        -16.56473590        0.001523        0.000130        0.000130        0.000632        0.000632
        56        -16.56480893        0.001357        0.000043        0.000043        0.000635        0.000635
        57        -16.56480959        0.001340        0.000043        0.000043        0.000627        0.000627
        58        -16.56487820        0.001437        0.000111        0.000111        0.000607        0.000607
        59        -16.56487896        0.001364        0.000112        0.000112        0.000570        0.000570
        60        -16.56494180        0.001219        0.000036        0.000036        0.000573        0.000573
        61        -16.56494019        0.001203        0.000036        0.000036        0.000565        0.000565
        62        -16.56499924        0.001286        0.000096        0.000096        0.000548        0.000548
        63        -16.56499924        0.001033        0.000096        0.000096        0.000421        0.000421
        64        -16.56505313        0.000906        0.000030        0.000030        0.000423        0.000423
        65        -16.56505500        0.000886        0.000030        0.000030        0.000413        0.000413
        66        -16.56510547        0.000964        0.000082        0.000082        0.000401        0.000401
        67        -16.56510559        0.000949        0.000082        0.000082        0.000393        0.000393
        68        -16.56515152        0.000840        0.000025        0.000025        0.000395        0.000395
        69        -16.56515159        0.000829        0.000025        0.000025        0.000389        0.000389
        70        -16.56519487        0.000897        0.000070        0.000070        0.000379        0.000379
        71        -16.56519494        0.000886        0.000070        0.000070        0.000373        0.000373
        72        -16.56523423        0.000791        0.000021        0.000021        0.000375        0.000375
        73        -16.56523430        0.000778        0.000021        0.000021        0.000368        0.000368
        74        -16.56527122        0.000837        0.000059        0.000059        0.000359        0.000359
        75        -16.56527128        0.000829        0.000059        0.000059        0.000355        0.000355
        76        -16.56530470        0.000747        0.000017        0.000017        0.000357        0.000357
        77        -16.56530476        0.000733        0.000017        0.000017        0.000350        0.000350
        78        -16.56533623        0.000785        0.000051        0.000051        0.000342        0.000342
        79        -16.56533623        0.000600        0.000051        0.000051        0.000250        0.000250
        80        -16.56536461        0.000530        0.000014        0.000014        0.000251        0.000251
        81        -16.56536468        0.000525        0.000014        0.000014        0.000248        0.000248
        82        -16.56539138        0.000576        0.000043        0.000043        0.000245        0.000245
        83        -16.56539143        0.000573        0.000043        0.000043        0.000244        0.000244
        84        -16.56541541        0.000513        0.000011        0.000011        0.000245        0.000245
        85        -16.56541546        0.000508        0.000011        0.000011        0.000243        0.000243
        86        -16.56543809        0.000554        0.000036        0.000036        0.000241        0.000241
        87        -16.56543813        0.000551        0.000036        0.000036        0.000240        0.000240
        88        -16.56545838        0.000499        0.000009        0.000009        0.000241        0.000241
        89        -16.56545841        0.000495        0.000009        0.000009        0.000238        0.000238
        90        -16.56547751        0.000535        0.000030        0.000030        0.000237        0.000237
        91        -16.56547754        0.000533        0.000030        0.000030        0.000236        0.000236
        92        -16.56549453        0.000489        0.000007        0.000007        0.000237        0.000237
        93        -16.56549456        0.000485        0.000007        0.000007        0.000235        0.000235
        94        -16.56551064        0.000520        0.000025        0.000025        0.000235        0.000235
        95        -16.56551065        0.000519        0.000025        0.000025        0.000234        0.000234
        96        -16.56552487        0.000481        0.000006        0.000006        0.000235        0.000235
        97        -16.56552489        0.000478        0.000006        0.000006        0.000233        0.000233
        98        -16.56553834        0.000509        0.000021        0.000021        0.000233        0.000233
        99        -16.56553834        0.000508        0.000021        0.000021        0.000233        0.000233
       100        -16.56555015        0.000476        0.000005        0.000005        0.000234        0.000234
       101        -16.56555016        0.000474        0.000005        0.000005        0.000232        0.000232
       102        -16.56556139        0.000501        0.000017        0.000017        0.000233        0.000233
       103        -16.56556140        0.000501        0.000017        0.000017        0.000233        0.000233
       104        -16.56557117        0.000474        0.000003        0.000003        0.000234        0.000234
       105        -16.56557118        0.000472        0.000003        0.000003        0.000233        0.000233
       106        -16.56558051        0.000496        0.000014        0.000014        0.000234        0.000234
       107        -16.56558051        0.000316        0.000014        0.000014        0.000143        0.000143
       108        -16.56558852        0.000293        0.000003        0.000003        0.000144        0.000144
       109        -16.56558852        0.000212        0.000003        0.000003        0.000104        0.000104
       110        -16.56559622        0.000230        0.000012        0.000012        0.000103        0.000103
       111        -16.56559622        0.000229        0.000012        0.000012        0.000103        0.000103
       112        -16.56560272        0.000210        0.000002        0.000002        0.000103        0.000103
       113        -16.56560273        0.000209        0.000002        0.000002        0.000103        0.000103
       114        -16.56560914        0.000225        0.000009        0.000009        0.000103        0.000103
       115        -16.56560914        0.000224        0.000009        0.000009        0.000102        0.000102
       116        -16.56561445        0.000208        0.000001        0.000001        0.000103        0.000103
       117        -16.56561445        0.000207        0.000001        0.000001        0.000102        0.000102
       118        -16.56561947        0.000220        0.000007        0.000007        0.000103        0.000103
       119        -16.56561948        0.000219        0.000007        0.000007        0.000102        0.000102
       120        -16.56562348        0.000207        0.000001        0.000001        0.000103        0.000103
       121        -16.56562348        0.000206        0.000001        0.000001        0.000102        0.000102
       122        -16.56562804        0.000218        0.000006        0.000006        0.000103        0.000103
       123        -16.56562804        0.000152        0.000006        0.000006        0.000070        0.000070
       124        -16.56563150        0.000141        0.000000        0.000000        0.000070        0.000070
       125        -16.56563151        0.000140        0.000000        0.000000        0.000069        0.000069
       126        -16.56563357        0.000145        0.000003        0.000003        0.000069        0.000069
       127        -16.56563357        0.000091        0.000003        0.000003        0.000042        0.000042
       128        -16.56563493        0.000086        0.000000        0.000000        0.000043        0.000043
       129        -16.56563494        0.000086        0.000000        0.000000        0.000043        0.000043
       130        -16.56563516        0.000087        0.000000        0.000000        0.000043        0.000043
       131        -16.56563516        0.000087        0.000000        0.000000        0.000043        0.000043
       132        -16.56563618        0.000088        0.000001        0.000001        0.000043        0.000043
       133        -16.56563618        0.000065        0.000001        0.000001        0.000032        0.000032
       134        -16.56563640        0.000064        0.000000        0.000000        0.000032        0.000032
       135        -16.56563640        0.000045        0.000000        0.000000        0.000022        0.000022
       136        -16.56563640        0.000045        0.000000        0.000000        0.000022        0.000022
       137        -16.56563640        0.000045        0.000000        0.000000        0.000022        0.000022
       138        -16.56563642        0.000045        0.000000        0.000000        0.000022        0.000022
       139        -16.56563642        0.000045        0.000000        0.000000        0.000022        0.000022
       140        -16.56563642        0.000032        0.000000        0.000000        0.000016        0.000016
       141        -16.56563642        0.000032        0.000000        0.000000        0.000016        0.000016
       142        -16.56563642        0.000022        0.000000        0.000000        0.000011        0.000011
       143        -16.56563642        0.000022        0.000000        0.000000        0.000011        0.000011
       144        -16.56563642        0.000014        0.000000        0.000000        0.000007        0.000007
       145        -16.56563642        0.000011        0.000000        0.000000        0.000005        0.000005
       146        -16.56563642        0.000009        0.000000        0.000000        0.000004        0.000004
       147        -16.56563642        0.000009        0.000000        0.000000        0.000004        0.000004
       148        -16.56563642        0.000007        0.000000        0.000000        0.000004        0.000004
       149        -16.56563642        0.000006        0.000000        0.000000        0.000003        0.000003
       150        -16.56563642        0.000005        0.000000        0.000000        0.000002        0.000002
       151        -16.56563642        0.000003        0.000000        0.000000        0.000001        0.000001
       152        -16.56563642        0.000002        0.000000        0.000000        0.000001        0.000001
       153        -16.56563642        0.000002        0.000000        0.000000        0.000001        0.000001
       154        -16.56563642        0.000002        0.000000        0.000000        0.000001        0.000001
       155        -16.56563642        0.000002        0.000000        0.000000        0.000001        0.000001
       156        -16.56563642        0.000001        0.000000        0.000000        0.000001        0.000001
       157        -16.56563642        0.000001        0.000000        0.000000        0.000000        0.000000
       158        -16.56563642        0.000001        0.000000        0.000000        0.000000        0.000000
       159        -16.56563642        0.000001        0.000000        0.000000        0.000000        0.000000

 Reached Convergence

 WFN1                     :
 --------------------------
 Total WFN1 energy =         -16.5656364206
 1-Electron energy =         -18.6070983261
 2-Electron energy =           4.4183821365
 Entropy energy    =          -2.3769202309
 Nuclear energy    =           0.0000000000

 conventional Hartree-Fock:
 --------------------------
 Total SCF energy  =         -16.3329374796
 2-Electron energy =           4.6510810774


      Natural orbital occupation numbers

          Alpha     Beta
         ------   ------
     1   1.0000   1.0000
     2   0.2218   0.2218
     3   0.1745   0.1745
     4   0.1745   0.1745
     5   0.1745   0.1745
     6   0.0576   0.0576
     7   0.0656   0.0656
     8   0.0656   0.0656
     9   0.0656   0.0656
    10   0.0000   0.0000

                     WFN1 Final Correlation function energies
                     ----------------------------------------

              alpha       beta  
            --------    --------
       1     -3.3201     -3.3201
       2     -1.0822     -1.0822
       3     -0.8218     -0.8218
       4     -0.8136     -0.8136
       5     -0.8055     -0.8055
       6     -0.8053     -0.8053
       7     -0.7994     -0.7994
       8     -0.7992     -0.7992
       9     -0.7992     -0.7992
      10     -0.4094     -0.4094
      11     -0.4094     -0.4094
      12     -0.4094     -0.4094
      13     -0.4094     -0.4094
      14     -0.4094     -0.4094
      15      1.3820      1.3820

                  WFN1 Final alpha Correlation Function Analysis
                  ----------------------------------------------


 global array: Ca[1:15,1:15],  handle: -984 

            1           2           3           4           5           6  
       ----------- ----------- ----------- ----------- ----------- -----------
   1       1.00000     0.00000    -0.00000    -0.00000     0.00000     0.00000
   2      -0.00000     0.47101    -0.23462     0.68471    -0.00230    -0.00702
   3       0.00000    -0.41776     0.00097     0.38003    -0.52647     0.38300
   4      -0.00000     0.41776     0.00571    -0.37839     0.06490     0.65797
   5      -0.00000    -0.41776    -0.00429     0.37660     0.59132     0.26860
   6       0.00000     0.24010     0.93512     0.23621     0.00226    -0.00268
   7       0.00000    -0.25621     0.15469    -0.12627     0.40258    -0.28203
   8      -0.00000     0.25621    -0.15360     0.13093     0.45233     0.20083
   9      -0.00000    -0.25621     0.15145    -0.11343     0.04771     0.47782
  10      -0.00000     0.00000    -0.00000     0.00000     0.00000    -0.00000
  11       0.00000    -0.00000     0.00000    -0.00000     0.00000    -0.00000
  12      -0.00000     0.00000    -0.00000     0.00000    -0.00000    -0.00000
  13      -0.00000    -0.00000     0.00000    -0.00000    -0.00000    -0.00000
  14      -0.00000     0.00000     0.00000     0.00000     0.00000    -0.00000
  15       0.00001     0.00000     0.00000     0.00000    -0.00000    -0.00000

            7           8           9          10          11          12  
       ----------- ----------- ----------- ----------- ----------- -----------
   1      -0.00000     0.00000    -0.00000     0.00000     0.00000     0.00000
   2      -0.50172    -0.01531     0.04766    -0.00000    -0.00000    -0.00000
   3       0.12489    -0.47330    -0.13261     0.00000     0.00000    -0.00000
   4      -0.17442    -0.13406    -0.44354    -0.00000    -0.00000    -0.00000
   5       0.07195     0.35184    -0.36449    -0.00000     0.00000     0.00000
   6       0.10913     0.00712    -0.01205    -0.00000    -0.00000    -0.00000
   7      -0.47382    -0.64524    -0.10972     0.00000     0.00000    -0.00000
   8       0.53851    -0.43516     0.41150     0.00000    -0.00000    -0.00000
   9      -0.41313     0.16807     0.68487     0.00000     0.00000     0.00000
  10       0.00000    -0.00000    -0.00000     0.31478     0.45121     0.82287
  11      -0.00000     0.00000    -0.00000     0.50677    -0.76840     0.24536
  12       0.00000     0.00000    -0.00000     0.07933     0.14080     0.06019
  13       0.00000     0.00000    -0.00000     0.04817     0.33138    -0.18022
  14      -0.00000     0.00000    -0.00000     0.79717     0.27628    -0.47600
  15      -0.00000     0.00000     0.00000     0.00000     0.00000     0.00000

           13          14          15  
       ----------- ----------- -----------
   1      -0.00000    -0.00000    -0.00001
   2      -0.00000     0.00000    -0.00000
   3       0.00000    -0.00000     0.00000
   4      -0.00000     0.00000    -0.00000
   5       0.00000    -0.00000     0.00000
   6      -0.00000     0.00000    -0.00000
   7       0.00000    -0.00000     0.00000
   8      -0.00000     0.00000     0.00000
   9      -0.00000    -0.00000    -0.00000
  10       0.10875     0.09153    -0.00000
  11      -0.26336     0.15225     0.00000
  12      -0.63662    -0.75165    -0.00000
  13      -0.67908     0.62789     0.00000
  14       0.22887    -0.09607    -0.00000
  15       0.00000    -0.00000     1.00000

                   WFN1 Final beta Correlation Function Analysis
                   ---------------------------------------------


 global array: Cb[1:15,1:15],  handle: -983 

            1           2           3           4           5           6  
       ----------- ----------- ----------- ----------- ----------- -----------
   1       1.00000     0.00000    -0.00000    -0.00000     0.00000     0.00000
   2      -0.00000     0.47101    -0.23462     0.68471    -0.00230    -0.00702
   3       0.00000    -0.41776     0.00097     0.38003    -0.52647     0.38300
   4      -0.00000     0.41776     0.00571    -0.37839     0.06490     0.65797
   5      -0.00000    -0.41776    -0.00429     0.37660     0.59132     0.26860
   6       0.00000     0.24010     0.93512     0.23621     0.00226    -0.00268
   7       0.00000    -0.25621     0.15469    -0.12627     0.40258    -0.28203
   8      -0.00000     0.25621    -0.15360     0.13093     0.45233     0.20083
   9      -0.00000    -0.25621     0.15145    -0.11343     0.04771     0.47782
  10      -0.00000     0.00000    -0.00000     0.00000     0.00000    -0.00000
  11       0.00000    -0.00000     0.00000    -0.00000     0.00000    -0.00000
  12      -0.00000     0.00000    -0.00000     0.00000    -0.00000    -0.00000
  13      -0.00000    -0.00000     0.00000    -0.00000    -0.00000    -0.00000
  14      -0.00000     0.00000     0.00000     0.00000     0.00000    -0.00000
  15       0.00001     0.00000     0.00000     0.00000    -0.00000    -0.00000

            7           8           9          10          11          12  
       ----------- ----------- ----------- ----------- ----------- -----------
   1      -0.00000     0.00000    -0.00000     0.00000     0.00000     0.00000
   2      -0.50172    -0.01531     0.04766    -0.00000    -0.00000    -0.00000
   3       0.12489    -0.47330    -0.13261     0.00000     0.00000    -0.00000
   4      -0.17442    -0.13406    -0.44354    -0.00000    -0.00000    -0.00000
   5       0.07195     0.35184    -0.36449    -0.00000     0.00000     0.00000
   6       0.10913     0.00712    -0.01205    -0.00000    -0.00000    -0.00000
   7      -0.47382    -0.64524    -0.10972     0.00000     0.00000    -0.00000
   8       0.53851    -0.43516     0.41150     0.00000    -0.00000    -0.00000
   9      -0.41313     0.16807     0.68487     0.00000     0.00000     0.00000
  10       0.00000    -0.00000    -0.00000     0.31478     0.45121     0.82287
  11      -0.00000     0.00000    -0.00000     0.50677    -0.76840     0.24536
  12       0.00000     0.00000    -0.00000     0.07933     0.14080     0.06019
  13       0.00000     0.00000    -0.00000     0.04817     0.33138    -0.18022
  14      -0.00000     0.00000    -0.00000     0.79717     0.27628    -0.47600
  15      -0.00000     0.00000     0.00000     0.00000     0.00000     0.00000

           13          14          15  
       ----------- ----------- -----------
   1      -0.00000    -0.00000    -0.00001
   2      -0.00000     0.00000    -0.00000
   3       0.00000    -0.00000     0.00000
   4      -0.00000     0.00000    -0.00000
   5       0.00000    -0.00000     0.00000
   6      -0.00000     0.00000    -0.00000
   7       0.00000    -0.00000     0.00000
   8      -0.00000     0.00000     0.00000
   9      -0.00000    -0.00000    -0.00000
  10       0.10875     0.09153    -0.00000
  11      -0.26336     0.15225     0.00000
  12      -0.63662    -0.75165    -0.00000
  13      -0.67908     0.62789     0.00000
  14       0.22887    -0.09607    -0.00000
  15       0.00000    -0.00000     1.00000

                     WFN1 Final Alpha Natural Orbital Analysis
                     -----------------------------------------

 Vector    1  Occ=1.000000D+00  E=-3.320135D+00
              MO Center=  2.6D-13,  5.0D-13,  3.6D-13, r^2= 6.6D-02
   Bfn.  Coefficient  Atom+Function         Bfn.  Coefficient  Atom+Function  
  ----- ------------  ---------------      ----- ------------  ---------------
     1     -0.997683  1 Be s          

 Vector    2  Occ=2.218465D-01  E=-1.082202D+00
              MO Center=  8.4D-12,  1.2D-11,  5.9D-12, r^2= 2.1D+00
   Bfn.  Coefficient  Atom+Function         Bfn.  Coefficient  Atom+Function  
  ----- ------------  ---------------      ----- ------------  ---------------
     6     -0.734384  1 Be s                  2     -0.281034  1 Be s          
     1      0.222518  1 Be s          

 Vector    3  Occ=1.745266D-01  E=-8.218447D-01
              MO Center= -8.3D-12, -3.7D-10,  2.0D-10, r^2= 2.7D+00
   Bfn.  Coefficient  Atom+Function         Bfn.  Coefficient  Atom+Function  
  ----- ------------  ---------------      ----- ------------  ---------------
     7     -0.598942  1 Be px                 3     -0.493247  1 Be px         
     8     -0.029235  1 Be py         

 Vector    4  Occ=1.745266D-01  E=-8.135613D-01
              MO Center= -8.3D-10, -5.9D-12, -8.2D-10, r^2= 2.7D+00
   Bfn.  Coefficient  Atom+Function         Bfn.  Coefficient  Atom+Function  
  ----- ------------  ---------------      ----- ------------  ---------------
     8     -0.596564  1 Be py                 4     -0.491245  1 Be py         
     9      0.054971  1 Be pz                 5      0.045266  1 Be pz         
     7      0.028240  1 Be px         

 Vector    5  Occ=1.745265D-01  E=-8.055251D-01
              MO Center= -1.4D-11, -7.9D-11, -4.2D-11, r^2= 2.7D+00
   Bfn.  Coefficient  Atom+Function         Bfn.  Coefficient  Atom+Function  
  ----- ------------  ---------------      ----- ------------  ---------------
     9     -0.597288  1 Be pz                 5     -0.491592  1 Be pz         
     8     -0.054456  1 Be py                 4     -0.044821  1 Be py         

 Vector    6  Occ=5.764894D-02  E=-8.053105D-01
              MO Center=  3.0D-12,  4.7D-12,  2.1D-12, r^2= 3.8D+00
   Bfn.  Coefficient  Atom+Function         Bfn.  Coefficient  Atom+Function  
  ----- ------------  ---------------      ----- ------------  ---------------
     2     -2.197889  1 Be s                  6      1.922152  1 Be s          
    10      0.078485  1 Be dxx               13      0.078486  1 Be dyy        
    15      0.078465  1 Be dzz        

 Vector    7  Occ=6.564149D-02  E=-7.993562D-01
              MO Center=  8.8D-12,  3.9D-11,  3.7D-11, r^2= 3.8D+00
   Bfn.  Coefficient  Atom+Function         Bfn.  Coefficient  Atom+Function  
  ----- ------------  ---------------      ----- ------------  ---------------
     3      1.229368  1 Be px                 7     -1.183084  1 Be px         
     4     -0.233603  1 Be py                 8      0.224801  1 Be py         
     5      0.027372  1 Be pz                 9     -0.026342  1 Be pz         

 Vector    8  Occ=6.564173D-02  E=-7.992494D-01
              MO Center=  3.2D-10, -6.5D-10,  6.0D-11, r^2= 3.8D+00
   Bfn.  Coefficient  Atom+Function         Bfn.  Coefficient  Atom+Function  
  ----- ------------  ---------------      ----- ------------  ---------------
     5     -1.246747  1 Be pz                 9      1.199669  1 Be pz         
     4     -0.111372  1 Be py                 8      0.107167  1 Be py         

 Vector    9  Occ=6.564152D-02  E=-7.992406D-01
              MO Center=  8.6D-11, -1.4D-10, -2.7D-10, r^2= 3.8D+00
   Bfn.  Coefficient  Atom+Function         Bfn.  Coefficient  Atom+Function  
  ----- ------------  ---------------      ----- ------------  ---------------
     4     -1.224628  1 Be py                 8      1.178503  1 Be py         
     3     -0.235104  1 Be px                 7      0.226256  1 Be px         
     5      0.108153  1 Be pz                 9     -0.104079  1 Be pz         

 Vector   10  Occ=2.174716D-15  E=-4.094109D-01
              MO Center= -1.7D-10,  3.8D-10,  2.8D-10, r^2= 1.2D+00
   Bfn.  Coefficient  Atom+Function         Bfn.  Coefficient  Atom+Function  
  ----- ------------  ---------------      ----- ------------  ---------------
    14      1.031841  1 Be dyz               13      0.685138  1 Be dyy        
    12      0.537249  1 Be dxz               11     -0.473800  1 Be dxy        
    10     -0.401549  1 Be dxx               15     -0.283609  1 Be dzz        

 Vector   11  Occ=2.542030D-15  E=-4.094109D-01
              MO Center=  4.8D-12, -2.2D-10,  4.0D-10, r^2= 1.2D+00
   Bfn.  Coefficient  Atom+Function         Bfn.  Coefficient  Atom+Function  
  ----- ------------  ---------------      ----- ------------  ---------------
    14     -1.196729  1 Be dyz               13      0.689027  1 Be dyy        
    10     -0.419554  1 Be dxx               11      0.340777  1 Be dxy        
    15     -0.269473  1 Be dzz               12     -0.070089  1 Be dxz        

 Vector   12  Occ=1.459496D-15  E=-4.094109D-01
              MO Center=  2.0D-11,  7.2D-12, -4.9D-11, r^2= 1.2D+00
   Bfn.  Coefficient  Atom+Function         Bfn.  Coefficient  Atom+Function  
  ----- ------------  ---------------      ----- ------------  ---------------
    15      0.914637  1 Be dzz               10     -0.806519  1 Be dxx        
    13     -0.108097  1 Be dyy               12     -0.034039  1 Be dxz        
    11     -0.029925  1 Be dxy        

 Vector   13  Occ=1.930292D-15  E=-4.094109D-01
              MO Center=  2.7D-10,  3.2D-12,  2.6D-11, r^2= 1.2D+00
   Bfn.  Coefficient  Atom+Function         Bfn.  Coefficient  Atom+Function  
  ----- ------------  ---------------      ----- ------------  ---------------
    12      1.239238  1 Be dxz               11      1.193403  1 Be dxy        
    13     -0.099645  1 Be dyy               14      0.098328  1 Be dyz        
    15      0.062392  1 Be dzz               10      0.037198  1 Be dxx        

 Vector   14  Occ=1.831580D-15  E=-4.094108D-01
              MO Center=  3.0D-10,  1.0D-09,  1.7D-10, r^2= 1.2D+00
   Bfn.  Coefficient  Atom+Function         Bfn.  Coefficient  Atom+Function  
  ----- ------------  ---------------      ----- ------------  ---------------
    11      1.110981  1 Be dxy               12     -1.081472  1 Be dxz        
    14      0.702113  1 Be dyz               13      0.184941  1 Be dyy        
    10     -0.104264  1 Be dxx               15     -0.080704  1 Be dzz        

 Vector   15  Occ=2.604806D-11  E= 1.381993D+00
              MO Center=  5.5D-15,  3.6D-14,  1.8D-14, r^2= 8.7D-01
   Bfn.  Coefficient  Atom+Function         Bfn.  Coefficient  Atom+Function  
  ----- ------------  ---------------      ----- ------------  ---------------
     2      6.690793  1 Be s                 10     -2.844571  1 Be dxx        
    13     -2.844571  1 Be dyy               15     -2.844567  1 Be dzz        
     6     -0.421000  1 Be s                  1     -0.312176  1 Be s          


                     WFN1 Final Beta Natural Orbital Analysis
                     ----------------------------------------

 Vector    1  Occ=1.000000D+00  E=-3.320135D+00
              MO Center=  2.6D-13,  5.0D-13,  3.6D-13, r^2= 6.6D-02
   Bfn.  Coefficient  Atom+Function         Bfn.  Coefficient  Atom+Function  
  ----- ------------  ---------------      ----- ------------  ---------------
     1     -0.997683  1 Be s          

 Vector    2  Occ=2.218465D-01  E=-1.082202D+00
              MO Center=  8.4D-12,  1.2D-11,  5.9D-12, r^2= 2.1D+00
   Bfn.  Coefficient  Atom+Function         Bfn.  Coefficient  Atom+Function  
  ----- ------------  ---------------      ----- ------------  ---------------
     6     -0.734384  1 Be s                  2     -0.281034  1 Be s          
     1      0.222518  1 Be s          

 Vector    3  Occ=1.745266D-01  E=-8.218447D-01
              MO Center= -8.3D-12, -3.7D-10,  2.0D-10, r^2= 2.7D+00
   Bfn.  Coefficient  Atom+Function         Bfn.  Coefficient  Atom+Function  
  ----- ------------  ---------------      ----- ------------  ---------------
     7     -0.598942  1 Be px                 3     -0.493247  1 Be px         
     8     -0.029235  1 Be py         

 Vector    4  Occ=1.745266D-01  E=-8.135613D-01
              MO Center= -8.3D-10, -5.9D-12, -8.2D-10, r^2= 2.7D+00
   Bfn.  Coefficient  Atom+Function         Bfn.  Coefficient  Atom+Function  
  ----- ------------  ---------------      ----- ------------  ---------------
     8     -0.596564  1 Be py                 4     -0.491245  1 Be py         
     9      0.054971  1 Be pz                 5      0.045266  1 Be pz         
     7      0.028240  1 Be px         

 Vector    5  Occ=1.745265D-01  E=-8.055251D-01
              MO Center= -1.4D-11, -7.9D-11, -4.2D-11, r^2= 2.7D+00
   Bfn.  Coefficient  Atom+Function         Bfn.  Coefficient  Atom+Function  
  ----- ------------  ---------------      ----- ------------  ---------------
     9     -0.597288  1 Be pz                 5     -0.491592  1 Be pz         
     8     -0.054456  1 Be py                 4     -0.044821  1 Be py         

 Vector    6  Occ=5.764894D-02  E=-8.053105D-01
              MO Center=  3.0D-12,  4.7D-12,  2.1D-12, r^2= 3.8D+00
   Bfn.  Coefficient  Atom+Function         Bfn.  Coefficient  Atom+Function  
  ----- ------------  ---------------      ----- ------------  ---------------
     2     -2.197889  1 Be s                  6      1.922152  1 Be s          
    10      0.078485  1 Be dxx               13      0.078486  1 Be dyy        
    15      0.078465  1 Be dzz        

 Vector    7  Occ=6.564149D-02  E=-7.993562D-01
              MO Center=  8.8D-12,  3.9D-11,  3.7D-11, r^2= 3.8D+00
   Bfn.  Coefficient  Atom+Function         Bfn.  Coefficient  Atom+Function  
  ----- ------------  ---------------      ----- ------------  ---------------
     3      1.229368  1 Be px                 7     -1.183084  1 Be px         
     4     -0.233603  1 Be py                 8      0.224801  1 Be py         
     5      0.027372  1 Be pz                 9     -0.026342  1 Be pz         

 Vector    8  Occ=6.564173D-02  E=-7.992494D-01
              MO Center=  3.2D-10, -6.5D-10,  6.0D-11, r^2= 3.8D+00
   Bfn.  Coefficient  Atom+Function         Bfn.  Coefficient  Atom+Function  
  ----- ------------  ---------------      ----- ------------  ---------------
     5     -1.246747  1 Be pz                 9      1.199669  1 Be pz         
     4     -0.111372  1 Be py                 8      0.107167  1 Be py         

 Vector    9  Occ=6.564152D-02  E=-7.992406D-01
              MO Center=  8.6D-11, -1.4D-10, -2.7D-10, r^2= 3.8D+00
   Bfn.  Coefficient  Atom+Function         Bfn.  Coefficient  Atom+Function  
  ----- ------------  ---------------      ----- ------------  ---------------
     4     -1.224628  1 Be py                 8      1.178503  1 Be py         
     3     -0.235104  1 Be px                 7      0.226256  1 Be px         
     5      0.108153  1 Be pz                 9     -0.104079  1 Be pz         

 Vector   10  Occ=2.174716D-15  E=-4.094109D-01
              MO Center= -1.7D-10,  3.8D-10,  2.8D-10, r^2= 1.2D+00
   Bfn.  Coefficient  Atom+Function         Bfn.  Coefficient  Atom+Function  
  ----- ------------  ---------------      ----- ------------  ---------------
    14      1.031841  1 Be dyz               13      0.685138  1 Be dyy        
    12      0.537249  1 Be dxz               11     -0.473800  1 Be dxy        
    10     -0.401549  1 Be dxx               15     -0.283609  1 Be dzz        

 Vector   11  Occ=2.542030D-15  E=-4.094109D-01
              MO Center=  4.8D-12, -2.2D-10,  4.0D-10, r^2= 1.2D+00
   Bfn.  Coefficient  Atom+Function         Bfn.  Coefficient  Atom+Function  
  ----- ------------  ---------------      ----- ------------  ---------------
    14     -1.196729  1 Be dyz               13      0.689027  1 Be dyy        
    10     -0.419554  1 Be dxx               11      0.340777  1 Be dxy        
    15     -0.269473  1 Be dzz               12     -0.070089  1 Be dxz        

 Vector   12  Occ=1.459496D-15  E=-4.094109D-01
              MO Center=  2.0D-11,  7.2D-12, -4.9D-11, r^2= 1.2D+00
   Bfn.  Coefficient  Atom+Function         Bfn.  Coefficient  Atom+Function  
  ----- ------------  ---------------      ----- ------------  ---------------
    15      0.914637  1 Be dzz               10     -0.806519  1 Be dxx        
    13     -0.108097  1 Be dyy               12     -0.034039  1 Be dxz        
    11     -0.029925  1 Be dxy        

 Vector   13  Occ=1.930292D-15  E=-4.094109D-01
              MO Center=  2.7D-10,  3.2D-12,  2.6D-11, r^2= 1.2D+00
   Bfn.  Coefficient  Atom+Function         Bfn.  Coefficient  Atom+Function  
  ----- ------------  ---------------      ----- ------------  ---------------
    12      1.239238  1 Be dxz               11      1.193403  1 Be dxy        
    13     -0.099645  1 Be dyy               14      0.098328  1 Be dyz        
    15      0.062392  1 Be dzz               10      0.037198  1 Be dxx        

 Vector   14  Occ=1.831580D-15  E=-4.094108D-01
              MO Center=  3.0D-10,  1.0D-09,  1.7D-10, r^2= 1.2D+00
   Bfn.  Coefficient  Atom+Function         Bfn.  Coefficient  Atom+Function  
  ----- ------------  ---------------      ----- ------------  ---------------
    11      1.110981  1 Be dxy               12     -1.081472  1 Be dxz        
    14      0.702113  1 Be dyz               13      0.184941  1 Be dyy        
    10     -0.104264  1 Be dxx               15     -0.080704  1 Be dzz        

 Vector   15  Occ=2.604806D-11  E= 1.381993D+00
              MO Center=  5.5D-15,  3.6D-14,  1.8D-14, r^2= 8.7D-01
   Bfn.  Coefficient  Atom+Function         Bfn.  Coefficient  Atom+Function  
  ----- ------------  ---------------      ----- ------------  ---------------
     2      6.690793  1 Be s                 10     -2.844571  1 Be dxx        
    13     -2.844571  1 Be dyy               15     -2.844567  1 Be dzz        
     6     -0.421000  1 Be s                  1     -0.312176  1 Be s          


 Task  times  cpu:       83.9s     wall:       90.5s


                                NWChem Input Module
                                -------------------


 Summary of allocated global arrays
-----------------------------------
  No active global arrays



                         GA Statistics for process    0
                         ------------------------------

       create   destroy   get      put      acc     scatter   gather  read&inc
calls:   90       90     9.47e+06 1.54e+04 5.44e+06    0        0        8     
number of processes/call 1.00e+00 1.00e+00 1.00e+00 0.00e+00 0.00e+00
bytes total:             1.38e+10 2.56e+07 9.78e+09 0.00e+00 0.00e+00 6.40e+01
bytes remote:            0.00e+00 0.00e+00 0.00e+00 0.00e+00 0.00e+00 0.00e+00
Max memory consumed for GA by this process: 61200 bytes

MA_summarize_allocated_blocks: starting scan ...
MA_summarize_allocated_blocks: scan completed: 0 heap blocks, 0 stack blocks
MA usage statistics:

	allocation statistics:
					      heap	     stack
					      ----	     -----
	current number of blocks	         0	         0
	maximum number of blocks	        18	        17
	current total bytes		         0	         0
	maximum total bytes		   3210040	  22508664
	maximum total K-bytes		      3211	     22509
	maximum total M-bytes		         4	        23


                                     CITATION
                                     --------
                Please cite the following reference when publishing
                           results obtained with NWChem:

                 M. Valiev, E.J. Bylaska, N. Govind, K. Kowalski,
              T.P. Straatsma, H.J.J. van Dam, D. Wang, J. Nieplocha,
                        E. Apra, T.L. Windus, W.A. de Jong
                 "NWChem: a comprehensive and scalable open-source
                  solution for large scale molecular simulations"
                      Comput. Phys. Commun. 181, 1477 (2010)
                           doi:10.1016/j.cpc.2010.04.018

                                      AUTHORS
                                      -------
          E. Apra, E. J. Bylaska, W. A. de Jong, N. Govind, K. Kowalski,
       T. P. Straatsma, M. Valiev, H. J. J. van Dam, D. Wang, T. L. Windus,
        J. Hammond, J. Autschbach, K. Bhaskaran-Nair, J. Brabec, K. Lopata,
    S. A. Fischer, S. Krishnamoorthy, M. Jacquelin, W. Ma, M. Klemm, O. Villa,
      Y. Chen, V. Anisimov, F. Aquino, S. Hirata, M. T. Hackler, V. Konjkov,
      T. Risthaus, M. Malagoli, A. Marenich, A. Otero-de-la-Roza, J. Mullin,
        P. Nichols, R. Peverati, J. Pittner, Y. Zhao, P.-D. Fan, A. Fonari,
       M. Williamson, R. J. Harrison, J. R. Rehr, M. Dupuis, D. Silverstein,
    D. M. A. Smith, J. Nieplocha, V. Tipparaju, M. Krishnan, B. E. Van Kuiken,
        A. Vazquez-Mayagoitia, L. Jensen, M. Swart, Q. Wu, T. Van Voorhis,
     A. A. Auer, M. Nooijen, L. D. Crosby, E. Brown, G. Cisneros, G. I. Fann,
   H. Fruchtl, J. Garza, K. Hirao, R. A. Kendall, J. A. Nichols, K. Tsemekhman,
    K. Wolinski, J. Anchell, D. E. Bernholdt, P. Borowski, T. Clark, D. Clerc,
   H. Dachsel, M. J. O. Deegan, K. Dyall, D. Elwood, E. Glendening, M. Gutowski,
   A. C. Hess, J. Jaffe, B. G. Johnson, J. Ju, R. Kobayashi, R. Kutteh, Z. Lin,
   R. Littlefield, X. Long, B. Meng, T. Nakajima, S. Niu, L. Pollack, M. Rosing,
   K. Glaesemann, G. Sandrone, M. Stave, H. Taylor, G. Thomas, J. H. van Lenthe,
                               A. T. Wong, Z. Zhang.

 Total times  cpu:       84.4s     wall:       91.2s
