 argument  1 = wfn1_be.nw



============================== echo of input deck ==============================
echo
start wfn1_be_dat

geometry
  be 0 0 0
end
basis
  * library 6-31g*
end

set wfn1:t_bath 0.0
set wfn1:maxit  200
set wfn1:print_error T

task wfn1 energy

#set wfn1:conv_tol 1.0d-8
set wfn1:t_bath 0.05
set wfn1:maxit 2000
set wfn1:maxit 2000
set wfn1:print_error T

task wfn1 energy
================================================================================


                                         
                                         


              Northwest Computational Chemistry Package (NWChem) 6.8
              ------------------------------------------------------


                    Environmental Molecular Sciences Laboratory
                       Pacific Northwest National Laboratory
                                Richland, WA 99352

                              Copyright (c) 1994-2015
                       Pacific Northwest National Laboratory
                            Battelle Memorial Institute

             NWChem is an open-source computational chemistry package
                        distributed under the terms of the
                      Educational Community License (ECL) 2.0
             A copy of the license is included with this distribution
                              in the LICENSE.TXT file

                                  ACKNOWLEDGMENT
                                  --------------

            This software and its documentation were developed at the
            EMSL at Pacific Northwest National Laboratory, a multiprogram
            national laboratory, operated for the U.S. Department of Energy
            by Battelle under Contract Number DE-AC05-76RL01830. Support
            for this work was provided by the Department of Energy Office
            of Biological and Environmental Research, Office of Basic
            Energy Sciences, and the Office of Advanced Scientific Computing.


           Job information
           ---------------

    hostname        = erato
    program         = ../../../bin/LINUX64/nwchem
    date            = Sun May  6 21:55:25 2018

    compiled        = Sun_May_06_21:45:21_2018
    source          = /home/hvandam/nwchem-1-wfn1
    nwchem branch   = Development
    nwchem revision = nwchem_on_git-51-gcccac83fc2a4226c5c513281d68ab773edcb0a0d
    ga revision     = nwchem_on_git-43-g1da910a
    use scalapack   = F
    input           = wfn1_be.nw
    prefix          = wfn1_be_dat.
    data base       = ./wfn1_be_dat.db
    status          = startup
    nproc           =        1
    time left       =     -1s



           Memory information
           ------------------

    heap     =   13107194 doubles =    100.0 Mbytes
    stack    =   13107199 doubles =    100.0 Mbytes
    global   =   26214400 doubles =    200.0 Mbytes (distinct from heap & stack)
    total    =   52428793 doubles =    400.0 Mbytes
    verify   = yes
    hardfail = no 


           Directory information
           ---------------------

  0 permanent = .
  0 scratch   = .




                                NWChem Input Module
                                -------------------



 Scaling coordinates for geometry "geometry" by  1.889725989
 (inverse scale =  0.529177249)



                             Geometry "geometry" -> ""
                             -------------------------

 Output coordinates in angstroms (scale by  1.889725989 to convert to a.u.)

  No.       Tag          Charge          X              Y              Z
 ---- ---------------- ---------- -------------- -------------- --------------
    1 be                   4.0000     0.00000000     0.00000000     0.00000000

      Atomic Mass 
      ----------- 

      be                 9.012180


 Effective nuclear repulsion energy (a.u.)       0.0000000000

            Nuclear Dipole moment (a.u.) 
            ----------------------------
        X                 Y               Z
 ---------------- ---------------- ----------------
     0.0000000000     0.0000000000     0.0000000000


            XYZ format geometry
            -------------------
     1
 geometry
 be                    0.00000000     0.00000000     0.00000000



 Summary of "ao basis" -> "" (cartesian)
 ------------------------------------------------------------------------------
       Tag                 Description            Shells   Functions and Types
 ---------------- ------------------------------  ------  ---------------------
 *                           6-31g*                   on all atoms 



                                NWChem WFN1 Module
                                ------------------


                      Basis "ao basis" -> "ao basis" (cartesian)
                      -----
  be (Beryllium)
  --------------
            Exponent  Coefficients 
       -------------- ---------------------------------------------------------
  1 S  1.26458570E+03  0.001945
  1 S  1.89936810E+02  0.014835
  1 S  4.31590890E+01  0.072091
  1 S  1.20986630E+01  0.237154
  1 S  3.80632320E+00  0.469199
  1 S  1.27289030E+00  0.356520

  2 S  3.19646310E+00 -0.112649
  2 S  7.47813300E-01 -0.229506
  2 S  2.19966300E-01  1.186917

  3 P  3.19646310E+00  0.055980
  3 P  7.47813300E-01  0.261551
  3 P  2.19966300E-01  0.793972

  4 S  8.23099000E-02  1.000000

  5 P  8.23099000E-02  1.000000

  6 D  4.00000000E-01  1.000000



 Summary of "ao basis" -> "ao basis" (cartesian)
 ------------------------------------------------------------------------------
       Tag                 Description            Shells   Functions and Types
 ---------------- ------------------------------  ------  ---------------------
 be                          6-31g*                  6       15   3s2p1d



      Superposition of Atomic Density Guess
      -------------------------------------

 Sum of atomic energies:         -14.56676403

      Non-variational initial energy
      ------------------------------

 Total energy =     -14.566764
 1-e energy   =     -19.117157
 2-e energy   =       4.550393
 HOMO         =      -0.301367
 LUMO         =       0.082435

 iteration              energy           error          err Na          err Nb          err Ca          err Cb
 ---------              ------           -----          ------          ------          ------          ------
         1        -14.56694411        0.000001        0.000000        0.000000        0.000000        0.000000

 Reached Convergence

 WFN1                     :
 --------------------------
 Total WFN1 energy =         -14.5669441117
 1-Electron energy =         -19.1122701590
 2-Electron energy =           4.5453260473
 Entropy energy    =           0.0000000000
 Nuclear energy    =           0.0000000000

 conventional Hartree-Fock:
 --------------------------
 Total SCF energy  =         -14.5669441117
 2-Electron energy =           4.5453260473

                WFN1 Final Natural orbital energies and occupations
                ---------------------------------------------------

              Alpha       Beta            Alpha       Beta  
            --------    --------        --------    --------
       1     -4.7093     -4.7093          1.0000      1.0000
       2     -0.3015     -0.3015          1.0000      1.0000
       3      0.0000      0.0000          0.0000      0.0000
       4      0.0000      0.0000          0.0000      0.0000
       5      0.0000      0.0000          0.0000      0.0000
       6      0.0000      0.0000          0.0000      0.0000
       7      0.0000      0.0000          0.0000      0.0000
       8      0.0000      0.0000          0.0000      0.0000
       9      0.0000      0.0000          0.0000      0.0000
      10      0.0000      0.0000          0.0000      0.0000
      11      0.0000      0.0000          0.0000      0.0000
      12      0.0000      0.0000          0.0000      0.0000
      13      0.0000      0.0000          0.0000      0.0000
      14      0.0000      0.0000          0.0000      0.0000
      15      0.0000      0.0000          0.0000      0.0000

             WFN1 Final Correlation function energies and occupations
             --------------------------------------------------------

              Alpha       Beta            Alpha       Beta  
            --------    --------        --------    --------
       1     -4.7093     -4.7093          1.0000      1.0000
       2     -0.3015     -0.3015          1.0000      1.0000
       3      0.0822      0.0822          0.0000      0.0000
       4      0.0823      0.0823          0.0000      0.0000
       5      0.2375      0.2375          0.0000      0.0000
       6      0.4389      0.4389          0.0000      0.0000
       7      0.4759      0.4759          0.0000      0.0000
       8      0.5159      0.5159          0.0000      0.0000
       9      0.7638      0.7638          0.0000      0.0000
      10      0.7976      0.7976          0.0000      0.0000
      11      0.9479      0.9479          0.0000      0.0000
      12      0.9996      0.9996          0.0000      0.0000
      13      1.0390      1.0390          0.0000      0.0000
      14      1.0426      1.0426          0.0000      0.0000
      15      2.8505      2.8505          0.0000      0.0000

                WFN1 Final alpha-alpha 2-matrix occupation numbers
                --------------------------------------------------


 global array: g_momo1[1:15,1:15],  handle: -994 

            1           2           3           4           5           6  
       ----------- ----------- ----------- ----------- ----------- -----------
   1       0.00000     1.00000     0.00000     0.00000     0.00000     0.00000
   2       1.00000     0.00000     0.00000     0.00000     0.00000     0.00000
   3       0.00000     0.00000     0.00000     0.00000     0.00000     0.00000
   4       0.00000     0.00000     0.00000     0.00000     0.00000     0.00000
   5       0.00000     0.00000     0.00000     0.00000     0.00000     0.00000
   6       0.00000     0.00000     0.00000     0.00000     0.00000     0.00000
   7       0.00000     0.00000     0.00000     0.00000     0.00000     0.00000
   8       0.00000     0.00000     0.00000     0.00000     0.00000     0.00000
   9       0.00000     0.00000     0.00000     0.00000     0.00000     0.00000
  10       0.00000     0.00000     0.00000     0.00000     0.00000     0.00000
  11       0.00000     0.00000     0.00000     0.00000     0.00000     0.00000
  12       0.00000     0.00000     0.00000     0.00000     0.00000     0.00000
  13       0.00000     0.00000     0.00000     0.00000     0.00000     0.00000
  14       0.00000     0.00000     0.00000     0.00000     0.00000     0.00000
  15       0.00000     0.00000     0.00000     0.00000     0.00000     0.00000

            7           8           9          10          11          12  
       ----------- ----------- ----------- ----------- ----------- -----------
   1       0.00000     0.00000     0.00000     0.00000     0.00000     0.00000
   2       0.00000     0.00000     0.00000     0.00000     0.00000     0.00000
   3       0.00000     0.00000     0.00000     0.00000     0.00000     0.00000
   4       0.00000     0.00000     0.00000     0.00000     0.00000     0.00000
   5       0.00000     0.00000     0.00000     0.00000     0.00000     0.00000
   6       0.00000     0.00000     0.00000     0.00000     0.00000     0.00000
   7       0.00000     0.00000     0.00000     0.00000     0.00000     0.00000
   8       0.00000     0.00000     0.00000     0.00000     0.00000     0.00000
   9       0.00000     0.00000     0.00000     0.00000     0.00000     0.00000
  10       0.00000     0.00000     0.00000     0.00000     0.00000     0.00000
  11       0.00000     0.00000     0.00000     0.00000     0.00000     0.00000
  12       0.00000     0.00000     0.00000     0.00000     0.00000     0.00000
  13       0.00000     0.00000     0.00000     0.00000     0.00000     0.00000
  14       0.00000     0.00000     0.00000     0.00000     0.00000     0.00000
  15       0.00000     0.00000     0.00000     0.00000     0.00000     0.00000

           13          14          15  
       ----------- ----------- -----------
   1       0.00000     0.00000     0.00000
   2       0.00000     0.00000     0.00000
   3       0.00000     0.00000     0.00000
   4       0.00000     0.00000     0.00000
   5       0.00000     0.00000     0.00000
   6       0.00000     0.00000     0.00000
   7       0.00000     0.00000     0.00000
   8       0.00000     0.00000     0.00000
   9       0.00000     0.00000     0.00000
  10       0.00000     0.00000     0.00000
  11       0.00000     0.00000     0.00000
  12       0.00000     0.00000     0.00000
  13       0.00000     0.00000     0.00000
  14       0.00000     0.00000     0.00000
  15       0.00000     0.00000     0.00000

                 WFN1 Final beta-beta 2-matrix occupation numbers
                 ------------------------------------------------


 global array: g_momo2[1:15,1:15],  handle: -993 

            1           2           3           4           5           6  
       ----------- ----------- ----------- ----------- ----------- -----------
   1       0.00000     1.00000     0.00000     0.00000     0.00000     0.00000
   2       1.00000     0.00000     0.00000     0.00000     0.00000     0.00000
   3       0.00000     0.00000     0.00000     0.00000     0.00000     0.00000
   4       0.00000     0.00000     0.00000     0.00000     0.00000     0.00000
   5       0.00000     0.00000     0.00000     0.00000     0.00000     0.00000
   6       0.00000     0.00000     0.00000     0.00000     0.00000     0.00000
   7       0.00000     0.00000     0.00000     0.00000     0.00000     0.00000
   8       0.00000     0.00000     0.00000     0.00000     0.00000     0.00000
   9       0.00000     0.00000     0.00000     0.00000     0.00000     0.00000
  10       0.00000     0.00000     0.00000     0.00000     0.00000     0.00000
  11       0.00000     0.00000     0.00000     0.00000     0.00000     0.00000
  12       0.00000     0.00000     0.00000     0.00000     0.00000     0.00000
  13       0.00000     0.00000     0.00000     0.00000     0.00000     0.00000
  14       0.00000     0.00000     0.00000     0.00000     0.00000     0.00000
  15       0.00000     0.00000     0.00000     0.00000     0.00000     0.00000

            7           8           9          10          11          12  
       ----------- ----------- ----------- ----------- ----------- -----------
   1       0.00000     0.00000     0.00000     0.00000     0.00000     0.00000
   2       0.00000     0.00000     0.00000     0.00000     0.00000     0.00000
   3       0.00000     0.00000     0.00000     0.00000     0.00000     0.00000
   4       0.00000     0.00000     0.00000     0.00000     0.00000     0.00000
   5       0.00000     0.00000     0.00000     0.00000     0.00000     0.00000
   6       0.00000     0.00000     0.00000     0.00000     0.00000     0.00000
   7       0.00000     0.00000     0.00000     0.00000     0.00000     0.00000
   8       0.00000     0.00000     0.00000     0.00000     0.00000     0.00000
   9       0.00000     0.00000     0.00000     0.00000     0.00000     0.00000
  10       0.00000     0.00000     0.00000     0.00000     0.00000     0.00000
  11       0.00000     0.00000     0.00000     0.00000     0.00000     0.00000
  12       0.00000     0.00000     0.00000     0.00000     0.00000     0.00000
  13       0.00000     0.00000     0.00000     0.00000     0.00000     0.00000
  14       0.00000     0.00000     0.00000     0.00000     0.00000     0.00000
  15       0.00000     0.00000     0.00000     0.00000     0.00000     0.00000

           13          14          15  
       ----------- ----------- -----------
   1       0.00000     0.00000     0.00000
   2       0.00000     0.00000     0.00000
   3       0.00000     0.00000     0.00000
   4       0.00000     0.00000     0.00000
   5       0.00000     0.00000     0.00000
   6       0.00000     0.00000     0.00000
   7       0.00000     0.00000     0.00000
   8       0.00000     0.00000     0.00000
   9       0.00000     0.00000     0.00000
  10       0.00000     0.00000     0.00000
  11       0.00000     0.00000     0.00000
  12       0.00000     0.00000     0.00000
  13       0.00000     0.00000     0.00000
  14       0.00000     0.00000     0.00000
  15       0.00000     0.00000     0.00000

                  WFN1 Final alpha Correlation Function Analysis
                  ----------------------------------------------


 global array: Ca[1:15,1:15],  handle: -984 

            1           2           3           4           5           6  
       ----------- ----------- ----------- ----------- ----------- -----------
   1       1.00000     0.00000     0.00000     0.00000     0.00000     0.00000
   2       0.00000     1.00000     0.00000     0.00000     0.00000     0.00000
   3       0.00000     0.00000     1.00000     0.00000     0.00000     0.00000
   4       0.00000     0.00000     0.00000     1.00000     0.00000     0.00000
   5       0.00000     0.00000     0.00000     0.00000     1.00000     0.00000
   6       0.00000     0.00000     0.00000     0.00000     0.00000     1.00000
   7       0.00000     0.00000     0.00000     0.00000     0.00000     0.00000
   8       0.00000     0.00000     0.00000     0.00000     0.00000     0.00000
   9       0.00000     0.00000     0.00000     0.00000     0.00000     0.00000
  10       0.00000     0.00000     0.00000     0.00000     0.00000     0.00000
  11       0.00000     0.00000     0.00000     0.00000     0.00000     0.00000
  12       0.00000     0.00000     0.00000     0.00000     0.00000     0.00000
  13       0.00000     0.00000     0.00000     0.00000     0.00000     0.00000
  14       0.00000     0.00000     0.00000     0.00000     0.00000     0.00000
  15       0.00000     0.00000     0.00000     0.00000     0.00000     0.00000

            7           8           9          10          11          12  
       ----------- ----------- ----------- ----------- ----------- -----------
   1       0.00000     0.00000     0.00000     0.00000     0.00000     0.00000
   2       0.00000     0.00000     0.00000     0.00000     0.00000     0.00000
   3       0.00000     0.00000     0.00000     0.00000     0.00000     0.00000
   4       0.00000     0.00000     0.00000     0.00000     0.00000     0.00000
   5       0.00000     0.00000     0.00000     0.00000     0.00000     0.00000
   6       0.00000     0.00000     0.00000     0.00000     0.00000     0.00000
   7       0.00000     0.00000     0.00000     1.00000     0.00000     0.00000
   8       1.00000     0.00000     0.00000     0.00000     0.00000     0.00000
   9       0.00000     1.00000     0.00000     0.00000     0.00000     0.00000
  10       0.00000     0.00000     1.00000     0.00000     0.00000     0.00000
  11       0.00000     0.00000     0.00000     0.00000     0.00000     1.00000
  12       0.00000     0.00000     0.00000     0.00000     1.00000     0.00000
  13       0.00000     0.00000     0.00000     0.00000     0.00000     0.00000
  14       0.00000     0.00000     0.00000     0.00000     0.00000     0.00000
  15       0.00000     0.00000     0.00000     0.00000     0.00000     0.00000

           13          14          15  
       ----------- ----------- -----------
   1       0.00000     0.00000     0.00000
   2       0.00000     0.00000     0.00000
   3       0.00000     0.00000     0.00000
   4       0.00000     0.00000     0.00000
   5       0.00000     0.00000     0.00000
   6       0.00000     0.00000     0.00000
   7       0.00000     0.00000     0.00000
   8       0.00000     0.00000     0.00000
   9       0.00000     0.00000     0.00000
  10       0.00000     0.00000     0.00000
  11       0.00000     0.00000     0.00000
  12       0.00000     0.00000     0.00000
  13       1.00000     0.00000     0.00000
  14       0.00000     1.00000     0.00000
  15       0.00000     0.00000     1.00000

                   WFN1 Final beta Correlation Function Analysis
                   ---------------------------------------------


 global array: Cb[1:15,1:15],  handle: -983 

            1           2           3           4           5           6  
       ----------- ----------- ----------- ----------- ----------- -----------
   1       1.00000     0.00000     0.00000     0.00000     0.00000     0.00000
   2       0.00000     1.00000     0.00000     0.00000     0.00000     0.00000
   3       0.00000     0.00000     1.00000     0.00000     0.00000     0.00000
   4       0.00000     0.00000     0.00000     1.00000     0.00000     0.00000
   5       0.00000     0.00000     0.00000     0.00000     1.00000     0.00000
   6       0.00000     0.00000     0.00000     0.00000     0.00000     1.00000
   7       0.00000     0.00000     0.00000     0.00000     0.00000     0.00000
   8       0.00000     0.00000     0.00000     0.00000     0.00000     0.00000
   9       0.00000     0.00000     0.00000     0.00000     0.00000     0.00000
  10       0.00000     0.00000     0.00000     0.00000     0.00000     0.00000
  11       0.00000     0.00000     0.00000     0.00000     0.00000     0.00000
  12       0.00000     0.00000     0.00000     0.00000     0.00000     0.00000
  13       0.00000     0.00000     0.00000     0.00000     0.00000     0.00000
  14       0.00000     0.00000     0.00000     0.00000     0.00000     0.00000
  15       0.00000     0.00000     0.00000     0.00000     0.00000     0.00000

            7           8           9          10          11          12  
       ----------- ----------- ----------- ----------- ----------- -----------
   1       0.00000     0.00000     0.00000     0.00000     0.00000     0.00000
   2       0.00000     0.00000     0.00000     0.00000     0.00000     0.00000
   3       0.00000     0.00000     0.00000     0.00000     0.00000     0.00000
   4       0.00000     0.00000     0.00000     0.00000     0.00000     0.00000
   5       0.00000     0.00000     0.00000     0.00000     0.00000     0.00000
   6       0.00000     0.00000     0.00000     0.00000     0.00000     0.00000
   7       0.00000     0.00000     0.00000     1.00000     0.00000     0.00000
   8       1.00000     0.00000     0.00000     0.00000     0.00000     0.00000
   9       0.00000     1.00000     0.00000     0.00000     0.00000     0.00000
  10       0.00000     0.00000     1.00000     0.00000     0.00000     0.00000
  11       0.00000     0.00000     0.00000     0.00000     0.00000     1.00000
  12       0.00000     0.00000     0.00000     0.00000     1.00000     0.00000
  13       0.00000     0.00000     0.00000     0.00000     0.00000     0.00000
  14       0.00000     0.00000     0.00000     0.00000     0.00000     0.00000
  15       0.00000     0.00000     0.00000     0.00000     0.00000     0.00000

           13          14          15  
       ----------- ----------- -----------
   1       0.00000     0.00000     0.00000
   2       0.00000     0.00000     0.00000
   3       0.00000     0.00000     0.00000
   4       0.00000     0.00000     0.00000
   5       0.00000     0.00000     0.00000
   6       0.00000     0.00000     0.00000
   7       0.00000     0.00000     0.00000
   8       0.00000     0.00000     0.00000
   9       0.00000     0.00000     0.00000
  10       0.00000     0.00000     0.00000
  11       0.00000     0.00000     0.00000
  12       0.00000     0.00000     0.00000
  13       1.00000     0.00000     0.00000
  14       0.00000     1.00000     0.00000
  15       0.00000     0.00000     1.00000

                     WFN1 Final Alpha Natural Orbital Analysis
                     -----------------------------------------

 Vector    1  Occ=1.000000D+00  E=-4.709277D+00
              MO Center=  1.4D-19,  2.3D-17, -5.7D-17, r^2= 6.5D-02
   Bfn.  Coefficient  Atom+Function         Bfn.  Coefficient  Atom+Function  
  ----- ------------  ---------------      ----- ------------  ---------------
     1     -0.998420  1 Be s          

 Vector    2  Occ=1.000000D+00  E=-3.015317D-01
              MO Center= -2.0D-16, -2.3D-17,  4.8D-17, r^2= 2.1D+00
   Bfn.  Coefficient  Atom+Function         Bfn.  Coefficient  Atom+Function  
  ----- ------------  ---------------      ----- ------------  ---------------
     6     -0.763981  1 Be s                  2     -0.252954  1 Be s          
     1      0.220946  1 Be s          

 Vector    3  Occ=0.000000D+00  E= 0.000000D+00
              MO Center= -4.2D-13,  1.7D-12,  2.1D-12, r^2= 3.4D+00
   Bfn.  Coefficient  Atom+Function         Bfn.  Coefficient  Atom+Function  
  ----- ------------  ---------------      ----- ------------  ---------------
     7     -0.802738  1 Be px                 3     -0.263804  1 Be px         
     8     -0.039189  1 Be py         

 Vector    4  Occ=0.000000D+00  E= 0.000000D+00
              MO Center=  3.0D-04,  2.7D-03,  1.7D-03, r^2= 3.5D+00
   Bfn.  Coefficient  Atom+Function         Bfn.  Coefficient  Atom+Function  
  ----- ------------  ---------------      ----- ------------  ---------------
     8     -0.803095  1 Be py                 4     -0.259451  1 Be py         
     9      0.066900  1 Be pz                 7      0.035420  1 Be px         

 Vector    5  Occ=0.000000D+00  E= 0.000000D+00
              MO Center=  7.6D-02,  1.1D-01, -1.9D-01, r^2= 2.7D+00
   Bfn.  Coefficient  Atom+Function         Bfn.  Coefficient  Atom+Function  
  ----- ------------  ---------------      ----- ------------  ---------------
     9     -0.581459  1 Be pz                 5     -0.384289  1 Be pz         
     8     -0.301687  1 Be py                14     -0.294558  1 Be dyz        
     4      0.283594  1 Be py                 3      0.276146  1 Be px         
    13     -0.267294  1 Be dyy                7     -0.208048  1 Be px         
    15      0.197185  1 Be dzz               12     -0.159970  1 Be dxz        

 Vector    6  Occ=0.000000D+00  E= 0.000000D+00
              MO Center=  3.6D-13,  2.8D-12,  7.9D-13, r^2= 3.8D+00
   Bfn.  Coefficient  Atom+Function         Bfn.  Coefficient  Atom+Function  
  ----- ------------  ---------------      ----- ------------  ---------------
     2     -2.136593  1 Be s                  6      1.906217  1 Be s          
    10      0.050425  1 Be dxx               13      0.050425  1 Be dyy        
    15      0.050425  1 Be dzz        

 Vector    7  Occ=0.000000D+00  E= 0.000000D+00
              MO Center= -1.2D-01, -5.4D-02, -7.8D-03, r^2= 2.0D+00
   Bfn.  Coefficient  Atom+Function         Bfn.  Coefficient  Atom+Function  
  ----- ------------  ---------------      ----- ------------  ---------------
    14      1.023989  1 Be dyz                3      0.814874  1 Be px         
     7     -0.665204  1 Be px                12      0.447739  1 Be dxz        
    10     -0.353175  1 Be dxx                4     -0.327959  1 Be py         
     8      0.262584  1 Be py                15      0.256669  1 Be dzz        
    11     -0.108730  1 Be dxy               13      0.096506  1 Be dyy        

 Vector    8  Occ=0.000000D+00  E= 0.000000D+00
              MO Center= -1.8D-02, -8.1D-03,  5.0D-02, r^2= 3.5D+00
   Bfn.  Coefficient  Atom+Function         Bfn.  Coefficient  Atom+Function  
  ----- ------------  ---------------      ----- ------------  ---------------
     5     -1.177998  1 Be pz                 9      1.108868  1 Be pz         
     4      0.413744  1 Be py                 8     -0.325138  1 Be py         
    14      0.174260  1 Be dyz               13      0.130560  1 Be dyy        
    12      0.104407  1 Be dxz               15     -0.093115  1 Be dzz        
     3      0.057123  1 Be px                 7     -0.049705  1 Be px         

 Vector    9  Occ=0.000000D+00  E= 0.000000D+00
              MO Center=  4.0D-02,  1.3D-01, -7.0D-02, r^2= 2.6D+00
   Bfn.  Coefficient  Atom+Function         Bfn.  Coefficient  Atom+Function  
  ----- ------------  ---------------      ----- ------------  ---------------
     4     -1.059066  1 Be py                 8      0.853103  1 Be py         
     5     -0.504869  1 Be pz                 3     -0.449239  1 Be px         
     7      0.370375  1 Be px                13     -0.272814  1 Be dyy        
     9      0.269326  1 Be pz                15      0.235636  1 Be dzz        
    11     -0.129780  1 Be dxy               12     -0.115472  1 Be dxz        

 Vector   10  Occ=0.000000D+00  E= 0.000000D+00
              MO Center= -9.6D-02, -3.1D-02, -3.1D-03, r^2= 2.2D+00
   Bfn.  Coefficient  Atom+Function         Bfn.  Coefficient  Atom+Function  
  ----- ------------  ---------------      ----- ------------  ---------------
    14      1.077006  1 Be dyz                3     -0.776122  1 Be px         
     7      0.639582  1 Be px                12      0.500617  1 Be dxz        
    11     -0.355851  1 Be dxy                4      0.318670  1 Be py         
     9     -0.296059  1 Be pz                 8     -0.281958  1 Be py         
    10      0.122852  1 Be dxx               15     -0.092078  1 Be dzz        

 Vector   11  Occ=0.000000D+00  E= 0.000000D+00
              MO Center=  9.7D-02,  3.3D-02,  6.2D-03, r^2= 1.4D+00
   Bfn.  Coefficient  Atom+Function         Bfn.  Coefficient  Atom+Function  
  ----- ------------  ---------------      ----- ------------  ---------------
    10     -0.767254  1 Be dxx               13      0.756016  1 Be dyy        
    11     -0.498566  1 Be dxy               14     -0.402262  1 Be dyz        
     3     -0.288006  1 Be px                 7      0.239703  1 Be px         
     9     -0.165955  1 Be pz                 4     -0.064264  1 Be py         
     5     -0.043999  1 Be pz                 8      0.034146  1 Be py         

 Vector   12  Occ=0.000000D+00  E= 0.000000D+00
              MO Center=  1.2D-02, -6.2D-02,  2.2D-01, r^2= 1.4D+00
   Bfn.  Coefficient  Atom+Function         Bfn.  Coefficient  Atom+Function  
  ----- ------------  ---------------      ----- ------------  ---------------
    15      0.867150  1 Be dzz               10     -0.474977  1 Be dxx        
    12     -0.448244  1 Be dxz               13     -0.392173  1 Be dyy        
     4      0.385607  1 Be py                 8     -0.294858  1 Be py         
     3     -0.251052  1 Be px                 7      0.200711  1 Be px         
     9      0.143948  1 Be pz                11      0.130341  1 Be dxy        

 Vector   13  Occ=0.000000D+00  E= 0.000000D+00
              MO Center= -5.7D-02, -4.5D-02, -4.5D-02, r^2= 1.3D+00
   Bfn.  Coefficient  Atom+Function         Bfn.  Coefficient  Atom+Function  
  ----- ------------  ---------------      ----- ------------  ---------------
    11      1.365777  1 Be dxy               12      0.928107  1 Be dxz        
    14     -0.222388  1 Be dyz                3     -0.204441  1 Be px         
    10     -0.185294  1 Be dxx                7      0.169732  1 Be px         
    15      0.101723  1 Be dzz                9     -0.093822  1 Be pz         
    13      0.083571  1 Be dyy                4     -0.051505  1 Be py         

 Vector   14  Occ=0.000000D+00  E= 0.000000D+00
              MO Center=  6.5D-02, -6.9D-02,  3.5D-02, r^2= 1.3D+00
   Bfn.  Coefficient  Atom+Function         Bfn.  Coefficient  Atom+Function  
  ----- ------------  ---------------      ----- ------------  ---------------
    12     -1.198657  1 Be dxz               11      0.842332  1 Be dxy        
    14      0.670903  1 Be dyz               13      0.307354  1 Be dyy        
    15     -0.245231  1 Be dzz                9     -0.127592  1 Be pz         
     3     -0.072598  1 Be px                 4     -0.072826  1 Be py         
     7      0.062539  1 Be px                10     -0.062123  1 Be dxx        

 Vector   15  Occ=0.000000D+00  E= 0.000000D+00
              MO Center= -3.0D-15,  1.7D-14, -3.8D-15, r^2= 8.6D-01
   Bfn.  Coefficient  Atom+Function         Bfn.  Coefficient  Atom+Function  
  ----- ------------  ---------------      ----- ------------  ---------------
     2      6.711756  1 Be s                 10     -2.845211  1 Be dxx        
    13     -2.845211  1 Be dyy               15     -2.845211  1 Be dzz        
     6     -0.440369  1 Be s                  1     -0.310942  1 Be s          


                     WFN1 Final Beta Natural Orbital Analysis
                     ----------------------------------------

 Vector    1  Occ=1.000000D+00  E=-4.709277D+00
              MO Center=  1.4D-19,  2.3D-17, -5.7D-17, r^2= 6.5D-02
   Bfn.  Coefficient  Atom+Function         Bfn.  Coefficient  Atom+Function  
  ----- ------------  ---------------      ----- ------------  ---------------
     1     -0.998420  1 Be s          

 Vector    2  Occ=1.000000D+00  E=-3.015317D-01
              MO Center= -2.0D-16, -2.3D-17,  4.8D-17, r^2= 2.1D+00
   Bfn.  Coefficient  Atom+Function         Bfn.  Coefficient  Atom+Function  
  ----- ------------  ---------------      ----- ------------  ---------------
     6     -0.763981  1 Be s                  2     -0.252954  1 Be s          
     1      0.220946  1 Be s          

 Vector    3  Occ=0.000000D+00  E= 0.000000D+00
              MO Center= -4.2D-13,  1.7D-12,  2.1D-12, r^2= 3.4D+00
   Bfn.  Coefficient  Atom+Function         Bfn.  Coefficient  Atom+Function  
  ----- ------------  ---------------      ----- ------------  ---------------
     7     -0.802738  1 Be px                 3     -0.263804  1 Be px         
     8     -0.039189  1 Be py         

 Vector    4  Occ=0.000000D+00  E= 0.000000D+00
              MO Center=  3.0D-04,  2.7D-03,  1.7D-03, r^2= 3.5D+00
   Bfn.  Coefficient  Atom+Function         Bfn.  Coefficient  Atom+Function  
  ----- ------------  ---------------      ----- ------------  ---------------
     8     -0.803095  1 Be py                 4     -0.259451  1 Be py         
     9      0.066900  1 Be pz                 7      0.035420  1 Be px         

 Vector    5  Occ=0.000000D+00  E= 0.000000D+00
              MO Center=  7.6D-02,  1.1D-01, -1.9D-01, r^2= 2.7D+00
   Bfn.  Coefficient  Atom+Function         Bfn.  Coefficient  Atom+Function  
  ----- ------------  ---------------      ----- ------------  ---------------
     9     -0.581459  1 Be pz                 5     -0.384289  1 Be pz         
     8     -0.301687  1 Be py                14     -0.294558  1 Be dyz        
     4      0.283594  1 Be py                 3      0.276146  1 Be px         
    13     -0.267294  1 Be dyy                7     -0.208048  1 Be px         
    15      0.197185  1 Be dzz               12     -0.159970  1 Be dxz        

 Vector    6  Occ=0.000000D+00  E= 0.000000D+00
              MO Center=  3.6D-13,  2.8D-12,  7.9D-13, r^2= 3.8D+00
   Bfn.  Coefficient  Atom+Function         Bfn.  Coefficient  Atom+Function  
  ----- ------------  ---------------      ----- ------------  ---------------
     2     -2.136593  1 Be s                  6      1.906217  1 Be s          
    10      0.050425  1 Be dxx               13      0.050425  1 Be dyy        
    15      0.050425  1 Be dzz        

 Vector    7  Occ=0.000000D+00  E= 0.000000D+00
              MO Center= -1.2D-01, -5.4D-02, -7.8D-03, r^2= 2.0D+00
   Bfn.  Coefficient  Atom+Function         Bfn.  Coefficient  Atom+Function  
  ----- ------------  ---------------      ----- ------------  ---------------
    14      1.023989  1 Be dyz                3      0.814874  1 Be px         
     7     -0.665204  1 Be px                12      0.447739  1 Be dxz        
    10     -0.353175  1 Be dxx                4     -0.327959  1 Be py         
     8      0.262584  1 Be py                15      0.256669  1 Be dzz        
    11     -0.108730  1 Be dxy               13      0.096506  1 Be dyy        

 Vector    8  Occ=0.000000D+00  E= 0.000000D+00
              MO Center= -1.8D-02, -8.1D-03,  5.0D-02, r^2= 3.5D+00
   Bfn.  Coefficient  Atom+Function         Bfn.  Coefficient  Atom+Function  
  ----- ------------  ---------------      ----- ------------  ---------------
     5     -1.177998  1 Be pz                 9      1.108868  1 Be pz         
     4      0.413744  1 Be py                 8     -0.325138  1 Be py         
    14      0.174260  1 Be dyz               13      0.130560  1 Be dyy        
    12      0.104407  1 Be dxz               15     -0.093115  1 Be dzz        
     3      0.057123  1 Be px                 7     -0.049705  1 Be px         

 Vector    9  Occ=0.000000D+00  E= 0.000000D+00
              MO Center=  4.0D-02,  1.3D-01, -7.0D-02, r^2= 2.6D+00
   Bfn.  Coefficient  Atom+Function         Bfn.  Coefficient  Atom+Function  
  ----- ------------  ---------------      ----- ------------  ---------------
     4     -1.059066  1 Be py                 8      0.853103  1 Be py         
     5     -0.504869  1 Be pz                 3     -0.449239  1 Be px         
     7      0.370375  1 Be px                13     -0.272814  1 Be dyy        
     9      0.269326  1 Be pz                15      0.235636  1 Be dzz        
    11     -0.129780  1 Be dxy               12     -0.115472  1 Be dxz        

 Vector   10  Occ=0.000000D+00  E= 0.000000D+00
              MO Center= -9.6D-02, -3.1D-02, -3.1D-03, r^2= 2.2D+00
   Bfn.  Coefficient  Atom+Function         Bfn.  Coefficient  Atom+Function  
  ----- ------------  ---------------      ----- ------------  ---------------
    14      1.077006  1 Be dyz                3     -0.776122  1 Be px         
     7      0.639582  1 Be px                12      0.500617  1 Be dxz        
    11     -0.355851  1 Be dxy                4      0.318670  1 Be py         
     9     -0.296059  1 Be pz                 8     -0.281958  1 Be py         
    10      0.122852  1 Be dxx               15     -0.092078  1 Be dzz        

 Vector   11  Occ=0.000000D+00  E= 0.000000D+00
              MO Center=  9.7D-02,  3.3D-02,  6.2D-03, r^2= 1.4D+00
   Bfn.  Coefficient  Atom+Function         Bfn.  Coefficient  Atom+Function  
  ----- ------------  ---------------      ----- ------------  ---------------
    10     -0.767254  1 Be dxx               13      0.756016  1 Be dyy        
    11     -0.498566  1 Be dxy               14     -0.402262  1 Be dyz        
     3     -0.288006  1 Be px                 7      0.239703  1 Be px         
     9     -0.165955  1 Be pz                 4     -0.064264  1 Be py         
     5     -0.043999  1 Be pz                 8      0.034146  1 Be py         

 Vector   12  Occ=0.000000D+00  E= 0.000000D+00
              MO Center=  1.2D-02, -6.2D-02,  2.2D-01, r^2= 1.4D+00
   Bfn.  Coefficient  Atom+Function         Bfn.  Coefficient  Atom+Function  
  ----- ------------  ---------------      ----- ------------  ---------------
    15      0.867150  1 Be dzz               10     -0.474977  1 Be dxx        
    12     -0.448244  1 Be dxz               13     -0.392173  1 Be dyy        
     4      0.385607  1 Be py                 8     -0.294858  1 Be py         
     3     -0.251052  1 Be px                 7      0.200711  1 Be px         
     9      0.143948  1 Be pz                11      0.130341  1 Be dxy        

 Vector   13  Occ=0.000000D+00  E= 0.000000D+00
              MO Center= -5.7D-02, -4.5D-02, -4.5D-02, r^2= 1.3D+00
   Bfn.  Coefficient  Atom+Function         Bfn.  Coefficient  Atom+Function  
  ----- ------------  ---------------      ----- ------------  ---------------
    11      1.365777  1 Be dxy               12      0.928107  1 Be dxz        
    14     -0.222388  1 Be dyz                3     -0.204441  1 Be px         
    10     -0.185294  1 Be dxx                7      0.169732  1 Be px         
    15      0.101723  1 Be dzz                9     -0.093822  1 Be pz         
    13      0.083571  1 Be dyy                4     -0.051505  1 Be py         

 Vector   14  Occ=0.000000D+00  E= 0.000000D+00
              MO Center=  6.5D-02, -6.9D-02,  3.5D-02, r^2= 1.3D+00
   Bfn.  Coefficient  Atom+Function         Bfn.  Coefficient  Atom+Function  
  ----- ------------  ---------------      ----- ------------  ---------------
    12     -1.198657  1 Be dxz               11      0.842332  1 Be dxy        
    14      0.670903  1 Be dyz               13      0.307354  1 Be dyy        
    15     -0.245231  1 Be dzz                9     -0.127592  1 Be pz         
     3     -0.072598  1 Be px                 4     -0.072826  1 Be py         
     7      0.062539  1 Be px                10     -0.062123  1 Be dxx        

 Vector   15  Occ=0.000000D+00  E= 0.000000D+00
              MO Center= -3.0D-15,  1.7D-14, -3.8D-15, r^2= 8.6D-01
   Bfn.  Coefficient  Atom+Function         Bfn.  Coefficient  Atom+Function  
  ----- ------------  ---------------      ----- ------------  ---------------
     2      6.711756  1 Be s                 10     -2.845211  1 Be dxx        
    13     -2.845211  1 Be dyy               15     -2.845211  1 Be dzz        
     6     -0.440369  1 Be s                  1     -0.310942  1 Be s          


 Task  times  cpu:        0.5s     wall:        2.3s


                                NWChem Input Module
                                -------------------



                                NWChem WFN1 Module
                                ------------------



      Superposition of Atomic Density Guess
      -------------------------------------

 Sum of atomic energies:         -14.56676403

      Non-variational initial energy
      ------------------------------

 Total energy =     -14.566764
 1-e energy   =     -19.117157
 2-e energy   =       4.550393
 HOMO         =      -0.301367
 LUMO         =       0.082435

 iteration              energy           error          err Na          err Nb          err Ca          err Cb
 ---------              ------           -----          ------          ------          ------          ------
         1        -14.57191489        0.045521        0.000002        0.000002        0.022759        0.022759
         2        -14.57191694        0.045520        0.000001        0.000001        0.022759        0.022759
         3        -14.58883947        0.452011        0.000008        0.000008        0.225997        0.225997
         4        -14.58890783        0.452901        0.000091        0.000091        0.226359        0.226359
         5        -14.60261877        0.547318        0.000102        0.000102        0.273557        0.273557
         6        -14.60266572        0.547090        0.000019        0.000019        0.273526        0.273526
         7        -14.61368834        1.364251        0.000049        0.000049        0.682077        0.682077
         8        -14.61435919        1.375980        0.002324        0.002324        0.685666        0.685666
         9        -14.61710292        1.673537        0.002254        0.002254        0.834514        0.834514
        10        -14.61755883        1.668447        0.000046        0.000046        0.834177        0.834177
        11        -14.61804335        0.664322        0.000051        0.000051        0.332110        0.332110
        12        -14.61868786        0.666876        0.000971        0.000971        0.332467        0.332467
        13        -14.61897024        0.329561        0.000970        0.000970        0.163810        0.163810
        14        -14.61946989        0.327841        0.000077        0.000077        0.163844        0.163844
        15        -14.61960412        0.199817        0.000079        0.000079        0.099829        0.099829
        16        -14.61974727        0.200109        0.000183        0.000183        0.099872        0.099872
        17        -14.61980655        0.234586        0.000184        0.000184        0.117109        0.117109
        18        -14.61990052        0.234292        0.000060        0.000060        0.117086        0.117086
        19        -14.61992302        0.016533        0.000060        0.000060        0.008206        0.008206
        20        -14.62009809        0.017246        0.000410        0.000410        0.008213        0.008213
        21        -14.62011486        0.006782        0.000410        0.000410        0.002981        0.002981
        22        -14.62024220        0.006040        0.000041        0.000041        0.002979        0.002979
        23        -14.62025422        0.001553        0.000041        0.000041        0.000735        0.000735
        24        -14.62124208        0.008325        0.003416        0.003416        0.000747        0.000747
        25        -14.62127652        0.023198        0.003399        0.003399        0.008200        0.008200
        26        -14.62192588        0.016464        0.000035        0.000035        0.008197        0.008197
        27        -14.62194983        0.000875        0.000035        0.000035        0.000403        0.000403
        28        -14.62200856        0.000990        0.000094        0.000094        0.000401        0.000401
        29        -14.62201782        0.001264        0.000094        0.000094        0.000537        0.000537
        30        -14.62210373        0.001239        0.000080        0.000080        0.000539        0.000539
        31        -14.62211083        0.000354        0.000080        0.000080        0.000097        0.000097
        32        -14.62214034        0.000247        0.000028        0.000028        0.000096        0.000096
        33        -14.62214577        0.000227        0.000028        0.000028        0.000086        0.000086
        34        -14.62230045        0.001120        0.000475        0.000475        0.000085        0.000085
        35        -14.62230565        0.001071        0.000474        0.000474        0.000061        0.000061
        36        -14.62240443        0.000165        0.000022        0.000022        0.000060        0.000060
        37        -14.62240973        0.000180        0.000022        0.000022        0.000068        0.000068
        38        -14.62251309        0.000662        0.000266        0.000266        0.000065        0.000065
        39        -14.62251796        0.000636        0.000266        0.000266        0.000052        0.000052
        40        -14.62265235        0.000193        0.000043        0.000043        0.000053        0.000053
        41        -14.62265778        0.000214        0.000043        0.000043        0.000063        0.000063
        42        -14.62267720        0.000177        0.000026        0.000026        0.000063        0.000063
        43        -14.62268163        0.000148        0.000026        0.000026        0.000048        0.000048
        44        -14.62276763        0.000545        0.000224        0.000224        0.000048        0.000048
        45        -14.62277440        0.000575        0.000224        0.000224        0.000064        0.000064
        46        -14.62282095        0.000161        0.000017        0.000017        0.000063        0.000063
        47        -14.62282566        0.000122        0.000017        0.000017        0.000043        0.000043
        48        -14.62292504        0.000597        0.000258        0.000258        0.000040        0.000040
        49        -14.62293665        0.000617        0.000259        0.000259        0.000050        0.000050
        50        -14.62306657        0.000175        0.000037        0.000037        0.000051        0.000051
        51        -14.62306887        0.000147        0.000037        0.000037        0.000037        0.000037
        52        -14.62308237        0.000106        0.000017        0.000017        0.000036        0.000036
        53        -14.62308237        0.000106        0.000017        0.000017        0.000036        0.000036
        54        -14.62318317        0.000642        0.000286        0.000286        0.000035        0.000035
        55        -14.62318345        0.000641        0.000286        0.000286        0.000035        0.000035
        56        -14.62324091        0.000101        0.000017        0.000017        0.000034        0.000034
        57        -14.62324091        0.000101        0.000017        0.000017        0.000034        0.000034
        58        -14.62326265        0.000163        0.000049        0.000049        0.000033        0.000033
        59        -14.62326290        0.000162        0.000049        0.000049        0.000032        0.000032
        60        -14.62331323        0.000181        0.000058        0.000058        0.000032        0.000032
        61        -14.62331347        0.000181        0.000058        0.000058        0.000032        0.000032
        62        -14.62332530        0.000086        0.000011        0.000011        0.000032        0.000032
        63        -14.62332209        0.000134        0.000011        0.000011        0.000056        0.000056
        64        -14.62358111        0.001112        0.000510        0.000510        0.000046        0.000046
        65        -14.62358532        0.001062        0.000510        0.000510        0.000021        0.000021
        66        -14.62381008        0.000080        0.000018        0.000018        0.000022        0.000022
        67        -14.62381148        0.000087        0.000018        0.000018        0.000026        0.000026
        68        -14.62381406        0.000062        0.000006        0.000006        0.000025        0.000025
        69        -14.62381511        0.000054        0.000006        0.000006        0.000021        0.000021
        70        -14.62385543        0.000236        0.000099        0.000099        0.000019        0.000019
        71        -14.62385742        0.000244        0.000100        0.000100        0.000022        0.000022
        72        -14.62391904        0.000088        0.000021        0.000021        0.000023        0.000023
        73        -14.62392006        0.000078        0.000021        0.000021        0.000018        0.000018
        74        -14.62392207        0.000049        0.000007        0.000007        0.000018        0.000018
        75        -14.62392207        0.000039        0.000007        0.000007        0.000013        0.000013
        76        -14.62392495        0.000037        0.000006        0.000006        0.000012        0.000012
        77        -14.62392509        0.000037        0.000006        0.000006        0.000012        0.000012
        78        -14.62395632        0.000176        0.000076        0.000076        0.000012        0.000012
        79        -14.62395647        0.000176        0.000076        0.000076        0.000012        0.000012
        80        -14.62396677        0.000046        0.000011        0.000011        0.000012        0.000012
        81        -14.62396690        0.000046        0.000011        0.000011        0.000012        0.000012
        82        -14.62396787        0.000033        0.000005        0.000005        0.000012        0.000012
        83        -14.62396800        0.000033        0.000005        0.000005        0.000012        0.000012
        84        -14.62397421        0.000052        0.000015        0.000015        0.000011        0.000011
        85        -14.62397433        0.000052        0.000015        0.000015        0.000011        0.000011
        86        -14.62399788        0.000085        0.000031        0.000031        0.000011        0.000011
        87        -14.62399788        0.000074        0.000031        0.000031        0.000006        0.000006
        88        -14.62400060        0.000029        0.000009        0.000009        0.000006        0.000006
        89        -14.62400011        0.000041        0.000009        0.000009        0.000012        0.000012
        90        -14.62400081        0.000031        0.000004        0.000004        0.000012        0.000012
        91        -14.62400184        0.000018        0.000004        0.000004        0.000005        0.000005
        92        -14.62400816        0.000041        0.000015        0.000015        0.000005        0.000005
        93        -14.62400831        0.000042        0.000015        0.000015        0.000005        0.000005
        94        -14.62403126        0.000068        0.000028        0.000028        0.000006        0.000006
        95        -14.62403126        0.000058        0.000028        0.000028        0.000001        0.000001
        96        -14.62403341        0.000019        0.000009        0.000009        0.000001        0.000001
        97        -14.62403353        0.000018        0.000009        0.000009        0.000000        0.000000
        98        -14.62403399        0.000009        0.000004        0.000004        0.000000        0.000000
        99        -14.62403409        0.000010        0.000004        0.000004        0.000001        0.000001
       100        -14.62403566        0.000009        0.000004        0.000004        0.000001        0.000001
       101        -14.62403574        0.000008        0.000004        0.000004        0.000000        0.000000
       102        -14.62406507        0.000152        0.000076        0.000076        0.000000        0.000000
       103        -14.62406532        0.000153        0.000076        0.000076        0.000001        0.000001
       104        -14.62407486        0.000025        0.000012        0.000012        0.000001        0.000001
       105        -14.62407498        0.000024        0.000012        0.000012        0.000000        0.000000
       106        -14.62407533        0.000013        0.000006        0.000006        0.000000        0.000000
       107        -14.62407555        0.000008        0.000004        0.000004        0.000000        0.000000
       108        -14.62407648        0.000006        0.000003        0.000003        0.000000        0.000000
       109        -14.62411813        0.000228        0.000114        0.000114        0.000000        0.000000
       110        -14.62413440        0.000026        0.000013        0.000013        0.000000        0.000000
       111        -14.62413459        0.000017        0.000008        0.000008        0.000000        0.000000
       112        -14.62413462        0.000014        0.000007        0.000007        0.000000        0.000000
       113        -14.62413464        0.000012        0.000006        0.000006        0.000000        0.000000
       114        -14.62413465        0.000011        0.000005        0.000005        0.000000        0.000000
       115        -14.62413465        0.000010        0.000005        0.000005        0.000000        0.000000
       116        -14.62413466        0.000009        0.000004        0.000004        0.000000        0.000000
       117        -14.62413468        0.000007        0.000003        0.000003        0.000000        0.000000
       118        -14.62413475        0.000005        0.000002        0.000002        0.000000        0.000000
       119        -14.62413552        0.000005        0.000002        0.000002        0.000000        0.000000
       120        -14.62415837        0.000121        0.000060        0.000060        0.000000        0.000000
       121        -14.62415848        0.000122        0.000060        0.000060        0.000001        0.000001
       122        -14.62416452        0.000025        0.000012        0.000012        0.000001        0.000001
       123        -14.62416459        0.000025        0.000012        0.000012        0.000000        0.000000
       124        -14.62416468        0.000018        0.000009        0.000009        0.000000        0.000000
       125        -14.62416469        0.000016        0.000008        0.000008        0.000000        0.000000
       126        -14.62416469        0.000016        0.000008        0.000008        0.000000        0.000000
       127        -14.62416470        0.000015        0.000007        0.000007        0.000000        0.000000
       128        -14.62416470        0.000015        0.000007        0.000007        0.000000        0.000000
       129        -14.62416470        0.000015        0.000007        0.000007        0.000000        0.000000
       130        -14.62415979        0.000008        0.000004        0.000004        0.000000        0.000000
       131        -14.62416348        0.000005        0.000002        0.000002        0.000000        0.000000
       132        -14.62416705        0.000008        0.000004        0.000004        0.000000        0.000000
       133        -14.62417060        0.000005        0.000002        0.000002        0.000000        0.000000
       134        -14.62417388        0.000007        0.000003        0.000003        0.000000        0.000000
       135        -14.62417725        0.000005        0.000002        0.000002        0.000000        0.000000
       136        -14.62418022        0.000006        0.000003        0.000003        0.000000        0.000000
       137        -14.62418342        0.000006        0.000003        0.000003        0.000000        0.000000
       138        -14.62418613        0.000005        0.000002        0.000002        0.000000        0.000000
       139        -14.62418616        0.000005        0.000002        0.000002        0.000000        0.000000
       140        -14.62418928        0.000006        0.000003        0.000003        0.000000        0.000000
       141        -14.62418930        0.000006        0.000003        0.000003        0.000000        0.000000
       142        -14.62419185        0.000004        0.000002        0.000002        0.000000        0.000000
       143        -14.62419508        0.000007        0.000004        0.000004        0.000000        0.000000
       144        -14.62419768        0.000003        0.000001        0.000001        0.000000        0.000000
       145        -14.62420158        0.000011        0.000005        0.000005        0.000000        0.000000
       146        -14.62420472        0.000003        0.000001        0.000001        0.000000        0.000000
       147        -14.62421150        0.000021        0.000010        0.000010        0.000000        0.000000
       148        -14.62421689        0.000002        0.000001        0.000001        0.000000        0.000000
       149        -14.62421722        0.000002        0.000001        0.000001        0.000000        0.000000
       150        -14.62426922        0.000086        0.000043        0.000043        0.000000        0.000000
       151        -14.62426922        0.000086        0.000043        0.000043        0.000000        0.000000
       152        -14.62428587        0.000002        0.000001        0.000001        0.000000        0.000000
       153        -14.62428588        0.000002        0.000001        0.000001        0.000000        0.000000
       154        -14.62428591        0.000002        0.000001        0.000001        0.000000        0.000000
       155        -14.62428591        0.000002        0.000001        0.000001        0.000000        0.000000
       156        -14.62428592        0.000001        0.000000        0.000000        0.000000        0.000000
       157        -14.62428592        0.000001        0.000000        0.000000        0.000000        0.000000
       158        -14.62428592        0.000001        0.000000        0.000000        0.000000        0.000000
       159        -14.62428592        0.000001        0.000000        0.000000        0.000000        0.000000
       160        -14.62428592        0.000001        0.000000        0.000000        0.000000        0.000000
       161        -14.62428593        0.000001        0.000000        0.000000        0.000000        0.000000
       162        -14.62428593        0.000001        0.000000        0.000000        0.000000        0.000000
       163        -14.62428593        0.000001        0.000000        0.000000        0.000000        0.000000
       164        -14.62428593        0.000001        0.000000        0.000000        0.000000        0.000000
       165        -14.62428607        0.000001        0.000000        0.000000        0.000000        0.000000

 Reached Convergence

 WFN1                     :
 --------------------------
 Total WFN1 energy =         -14.6242860691
 1-Electron energy =         -18.9244963479
 2-Electron energy =           4.4603247053
 Entropy energy    =          -0.1601144265
 Nuclear energy    =           0.0000000000

 conventional Hartree-Fock:
 --------------------------
 Total SCF energy  =         -14.4727492742
 2-Electron energy =           4.6118615002

                WFN1 Final Natural orbital energies and occupations
                ---------------------------------------------------

              Alpha       Beta            Alpha       Beta  
            --------    --------        --------    --------
       1     -4.7444     -4.7444          1.0000      1.0000
       2     -0.1906     -0.1906          0.6166      0.6166
       3     -0.0223     -0.0223          0.1278      0.1278
       4     -0.0223     -0.0223          0.1279      0.1279
       5     -0.0223     -0.0223          0.1277      0.1277
       6      0.0000      0.0000          0.0000      0.0000
       7     -0.0000     -0.0000          0.0000      0.0000
       8     -0.0000     -0.0000          0.0000      0.0000
       9     -0.0000     -0.0000          0.0000      0.0000
      10      0.0000      0.0000          0.0000      0.0000
      11      0.0000      0.0000          0.0000      0.0000
      12      0.0000      0.0000          0.0000      0.0000
      13      0.0000      0.0000          0.0000      0.0000
      14      0.0000      0.0000          0.0000      0.0000
      15      0.0000      0.0000          0.0000      0.0000

             WFN1 Final Correlation function energies and occupations
             --------------------------------------------------------

              Alpha       Beta            Alpha       Beta  
            --------    --------        --------    --------
       1     -4.6009     -4.6009          1.0000      1.0000
       2     -0.2779     -0.2779          1.0000      1.0000
       3     -0.0162     -0.0162          0.0000      0.0000
       4     -0.0079     -0.0079          0.0000      0.0000
       5     -0.0078     -0.0078          0.0000      0.0000
       6      0.2942      0.2942          0.0000      0.0000
       7      0.2963      0.2963          0.0000      0.0000
       8      0.2963      0.2963          0.0000      0.0000
       9      0.2963      0.2963          0.0000      0.0000
      10      0.9058      0.9058          0.0000      0.0000
      11      0.9058      0.9058          0.0000      0.0000
      12      0.9058      0.9058          0.0000      0.0000
      13      0.9058      0.9058          0.0000      0.0000
      14      0.9058      0.9058          0.0000      0.0000
      15      2.6888      2.6888          0.0000      0.0000

                WFN1 Final alpha-alpha 2-matrix occupation numbers
                --------------------------------------------------


 global array: g_momo1[1:15,1:15],  handle: -994 

            1           2           3           4           5           6  
       ----------- ----------- ----------- ----------- ----------- -----------
   1       0.00000     0.61660     0.12779     0.12792     0.12768     0.00000
   2       0.61660     0.00000    -0.00000     0.00000     0.00000     0.00000
   3       0.12779    -0.00000     0.00000    -0.00000    -0.00000     0.00000
   4       0.12792     0.00000    -0.00000     0.00000     0.00000     0.00000
   5       0.12768     0.00000    -0.00000     0.00000     0.00000     0.00000
   6       0.00000     0.00000     0.00000     0.00000     0.00000    -0.00000
   7       0.00000     0.00000     0.00000     0.00000     0.00000     0.00000
   8       0.00000     0.00000     0.00000     0.00000     0.00000     0.00000
   9       0.00000     0.00000     0.00000     0.00000     0.00000     0.00000
  10       0.00000     0.00000     0.00000     0.00000     0.00000     0.00000
  11       0.00000     0.00000     0.00000     0.00000     0.00000     0.00000
  12       0.00000     0.00000     0.00000     0.00000     0.00000     0.00000
  13       0.00000     0.00000     0.00000     0.00000     0.00000     0.00000
  14       0.00000     0.00000     0.00000     0.00000     0.00000     0.00000
  15       0.00000     0.00000     0.00000     0.00000     0.00000     0.00000

            7           8           9          10          11          12  
       ----------- ----------- ----------- ----------- ----------- -----------
   1       0.00000     0.00000     0.00000     0.00000     0.00000     0.00000
   2       0.00000     0.00000     0.00000     0.00000     0.00000     0.00000
   3       0.00000     0.00000     0.00000     0.00000     0.00000     0.00000
   4       0.00000     0.00000     0.00000     0.00000     0.00000     0.00000
   5       0.00000     0.00000     0.00000     0.00000     0.00000     0.00000
   6       0.00000     0.00000     0.00000     0.00000     0.00000     0.00000
   7       0.00000     0.00000     0.00000     0.00000     0.00000     0.00000
   8       0.00000    -0.00000     0.00000     0.00000     0.00000     0.00000
   9       0.00000     0.00000    -0.00000     0.00000     0.00000     0.00000
  10       0.00000     0.00000     0.00000    -0.00000    -0.00000     0.00000
  11       0.00000     0.00000     0.00000    -0.00000    -0.00000    -0.00000
  12       0.00000     0.00000     0.00000     0.00000    -0.00000     0.00000
  13       0.00000     0.00000     0.00000     0.00000    -0.00000     0.00000
  14       0.00000     0.00000     0.00000     0.00000     0.00000     0.00000
  15       0.00000     0.00000     0.00000     0.00000     0.00000     0.00000

           13          14          15  
       ----------- ----------- -----------
   1       0.00000     0.00000     0.00000
   2       0.00000     0.00000     0.00000
   3       0.00000     0.00000     0.00000
   4       0.00000     0.00000     0.00000
   5       0.00000     0.00000     0.00000
   6       0.00000     0.00000     0.00000
   7       0.00000     0.00000     0.00000
   8       0.00000     0.00000     0.00000
   9       0.00000     0.00000     0.00000
  10       0.00000     0.00000     0.00000
  11      -0.00000     0.00000     0.00000
  12       0.00000     0.00000     0.00000
  13       0.00000     0.00000     0.00000
  14       0.00000     0.00000     0.00000
  15       0.00000     0.00000    -0.00000

                 WFN1 Final beta-beta 2-matrix occupation numbers
                 ------------------------------------------------


 global array: g_momo2[1:15,1:15],  handle: -993 

            1           2           3           4           5           6  
       ----------- ----------- ----------- ----------- ----------- -----------
   1       0.00000     0.61660     0.12779     0.12792     0.12768     0.00000
   2       0.61660     0.00000    -0.00000     0.00000     0.00000     0.00000
   3       0.12779    -0.00000     0.00000    -0.00000    -0.00000     0.00000
   4       0.12792     0.00000    -0.00000     0.00000     0.00000     0.00000
   5       0.12768     0.00000    -0.00000     0.00000     0.00000     0.00000
   6       0.00000     0.00000     0.00000     0.00000     0.00000    -0.00000
   7       0.00000     0.00000     0.00000     0.00000     0.00000     0.00000
   8       0.00000     0.00000     0.00000     0.00000     0.00000     0.00000
   9       0.00000     0.00000     0.00000     0.00000     0.00000     0.00000
  10       0.00000     0.00000     0.00000     0.00000     0.00000     0.00000
  11       0.00000     0.00000     0.00000     0.00000     0.00000     0.00000
  12       0.00000     0.00000     0.00000     0.00000     0.00000     0.00000
  13       0.00000     0.00000     0.00000     0.00000     0.00000     0.00000
  14       0.00000     0.00000     0.00000     0.00000     0.00000     0.00000
  15       0.00000     0.00000     0.00000     0.00000     0.00000     0.00000

            7           8           9          10          11          12  
       ----------- ----------- ----------- ----------- ----------- -----------
   1       0.00000     0.00000     0.00000     0.00000     0.00000     0.00000
   2       0.00000     0.00000     0.00000     0.00000     0.00000     0.00000
   3       0.00000     0.00000     0.00000     0.00000     0.00000     0.00000
   4       0.00000     0.00000     0.00000     0.00000     0.00000     0.00000
   5       0.00000     0.00000     0.00000     0.00000     0.00000     0.00000
   6       0.00000     0.00000     0.00000     0.00000     0.00000     0.00000
   7       0.00000     0.00000     0.00000     0.00000     0.00000     0.00000
   8       0.00000    -0.00000     0.00000     0.00000     0.00000     0.00000
   9       0.00000     0.00000    -0.00000     0.00000     0.00000     0.00000
  10       0.00000     0.00000     0.00000    -0.00000    -0.00000     0.00000
  11       0.00000     0.00000     0.00000    -0.00000    -0.00000    -0.00000
  12       0.00000     0.00000     0.00000     0.00000    -0.00000     0.00000
  13       0.00000     0.00000     0.00000     0.00000    -0.00000     0.00000
  14       0.00000     0.00000     0.00000     0.00000     0.00000     0.00000
  15       0.00000     0.00000     0.00000     0.00000     0.00000     0.00000

           13          14          15  
       ----------- ----------- -----------
   1       0.00000     0.00000     0.00000
   2       0.00000     0.00000     0.00000
   3       0.00000     0.00000     0.00000
   4       0.00000     0.00000     0.00000
   5       0.00000     0.00000     0.00000
   6       0.00000     0.00000     0.00000
   7       0.00000     0.00000     0.00000
   8       0.00000     0.00000     0.00000
   9       0.00000     0.00000     0.00000
  10       0.00000     0.00000     0.00000
  11      -0.00000     0.00000     0.00000
  12       0.00000     0.00000     0.00000
  13       0.00000     0.00000     0.00000
  14       0.00000     0.00000     0.00000
  15       0.00000     0.00000    -0.00000

                  WFN1 Final alpha Correlation Function Analysis
                  ----------------------------------------------


 global array: Ca[1:15,1:15],  handle: -984 

            1           2           3           4           5           6  
       ----------- ----------- ----------- ----------- ----------- -----------
   1       1.00000    -0.00000     0.00000     0.00000     0.00000    -0.00000
   2       0.00000     0.78524    -0.61863     0.01421     0.02208    -0.00000
   3       0.00000     0.35748     0.48354     0.70106     0.38330     0.00000
   4       0.00000     0.35766     0.42384    -0.01988    -0.83189     0.00000
   5       0.00000     0.35733     0.45149    -0.71269     0.40069    -0.00000
   6       0.00000    -0.00000    -0.00000    -0.00000     0.00000     0.99973
   7       0.00000     0.00000    -0.00000     0.00000    -0.00000    -0.01351
   8       0.00000    -0.00000    -0.00000     0.00000    -0.00000     0.01255
   9       0.00000    -0.00000     0.00000     0.00000     0.00000    -0.01433
  10      -0.00001    -0.00000     0.00000     0.00000    -0.00000    -0.00000
  11      -0.00000    -0.00000     0.00000    -0.00000    -0.00000    -0.00000
  12      -0.00001    -0.00000     0.00000    -0.00000     0.00000    -0.00000
  13      -0.00001    -0.00000     0.00000     0.00000    -0.00000    -0.00000
  14      -0.00000    -0.00000     0.00000     0.00000     0.00000    -0.00000
  15      -0.00000     0.00000    -0.00000     0.00000    -0.00000     0.00000

            7           8           9          10          11          12  
       ----------- ----------- ----------- ----------- ----------- -----------
   1       0.00000     0.00000     0.00000     0.00000     0.00001     0.00000
   2      -0.00000    -0.00000     0.00000     0.00000     0.00000     0.00000
   3       0.00000     0.00000     0.00000    -0.00000     0.00000     0.00000
   4      -0.00000    -0.00000     0.00000    -0.00000     0.00000     0.00000
   5       0.00000    -0.00000    -0.00000     0.00000     0.00000    -0.00000
   6      -0.02327     0.00191    -0.00057     0.00000     0.00000     0.00000
   7      -0.54169     0.22969    -0.80848    -0.00000    -0.00000     0.00000
   8       0.49547    -0.68955    -0.52808     0.00000     0.00000     0.00000
   9      -0.67863    -0.68685     0.25980    -0.00000     0.00000     0.00000
  10       0.00000     0.00000     0.00000     0.82729     0.22744     0.34884
  11       0.00000    -0.00000    -0.00000    -0.20778    -0.59721     0.61950
  12       0.00000     0.00000     0.00000    -0.48837     0.70430     0.46408
  13       0.00000     0.00000     0.00000    -0.18173    -0.21138    -0.29581
  14      -0.00000     0.00000    -0.00000    -0.02973     0.22558    -0.43777
  15       0.00000     0.00000     0.00000    -0.00000    -0.00000    -0.00000

           13          14          15  
       ----------- ----------- -----------
   1       0.00001     0.00000     0.00000
   2       0.00000     0.00000    -0.00000
   3       0.00000     0.00000    -0.00000
   4       0.00000    -0.00000    -0.00000
   5       0.00000     0.00000     0.00000
   6       0.00000     0.00000    -0.00000
   7       0.00000     0.00000     0.00000
   8       0.00000     0.00000    -0.00000
   9       0.00000     0.00000     0.00000
  10       0.37258     0.05791     0.00000
  11       0.30102    -0.35464     0.00000
  12       0.20655     0.08611     0.00000
  13       0.72264     0.55909     0.00000
  14       0.45354    -0.74222     0.00000
  15      -0.00000    -0.00000     1.00000

                   WFN1 Final beta Correlation Function Analysis
                   ---------------------------------------------


 global array: Cb[1:15,1:15],  handle: -983 

            1           2           3           4           5           6  
       ----------- ----------- ----------- ----------- ----------- -----------
   1       1.00000    -0.00000     0.00000     0.00000     0.00000    -0.00000
   2       0.00000     0.78524    -0.61863     0.01421     0.02208    -0.00000
   3       0.00000     0.35748     0.48354     0.70106     0.38330     0.00000
   4       0.00000     0.35766     0.42384    -0.01988    -0.83189     0.00000
   5       0.00000     0.35733     0.45149    -0.71269     0.40069    -0.00000
   6       0.00000    -0.00000    -0.00000    -0.00000     0.00000     0.99973
   7       0.00000     0.00000    -0.00000     0.00000    -0.00000    -0.01351
   8       0.00000    -0.00000    -0.00000     0.00000    -0.00000     0.01255
   9       0.00000    -0.00000     0.00000     0.00000     0.00000    -0.01433
  10      -0.00001    -0.00000     0.00000     0.00000    -0.00000    -0.00000
  11      -0.00000    -0.00000     0.00000    -0.00000    -0.00000    -0.00000
  12      -0.00001    -0.00000     0.00000    -0.00000     0.00000    -0.00000
  13      -0.00001    -0.00000     0.00000     0.00000    -0.00000    -0.00000
  14      -0.00000    -0.00000     0.00000     0.00000     0.00000    -0.00000
  15      -0.00000     0.00000    -0.00000     0.00000    -0.00000     0.00000

            7           8           9          10          11          12  
       ----------- ----------- ----------- ----------- ----------- -----------
   1       0.00000     0.00000     0.00000     0.00000     0.00001     0.00000
   2      -0.00000    -0.00000     0.00000     0.00000     0.00000     0.00000
   3       0.00000     0.00000     0.00000    -0.00000     0.00000     0.00000
   4      -0.00000    -0.00000     0.00000    -0.00000     0.00000     0.00000
   5       0.00000    -0.00000    -0.00000     0.00000     0.00000    -0.00000
   6      -0.02327     0.00191    -0.00057     0.00000     0.00000     0.00000
   7      -0.54169     0.22969    -0.80848    -0.00000    -0.00000     0.00000
   8       0.49547    -0.68955    -0.52808     0.00000     0.00000     0.00000
   9      -0.67863    -0.68685     0.25980    -0.00000     0.00000     0.00000
  10       0.00000     0.00000     0.00000     0.82729     0.22744     0.34884
  11       0.00000    -0.00000    -0.00000    -0.20778    -0.59721     0.61950
  12       0.00000     0.00000     0.00000    -0.48837     0.70430     0.46408
  13       0.00000     0.00000     0.00000    -0.18173    -0.21138    -0.29581
  14      -0.00000     0.00000    -0.00000    -0.02973     0.22558    -0.43777
  15       0.00000     0.00000     0.00000    -0.00000    -0.00000    -0.00000

           13          14          15  
       ----------- ----------- -----------
   1       0.00001     0.00000     0.00000
   2       0.00000     0.00000    -0.00000
   3       0.00000     0.00000    -0.00000
   4       0.00000    -0.00000    -0.00000
   5       0.00000     0.00000     0.00000
   6       0.00000     0.00000    -0.00000
   7       0.00000     0.00000     0.00000
   8       0.00000     0.00000    -0.00000
   9       0.00000     0.00000     0.00000
  10       0.37258     0.05791     0.00000
  11       0.30102    -0.35464     0.00000
  12       0.20655     0.08611     0.00000
  13       0.72264     0.55909     0.00000
  14       0.45354    -0.74222     0.00000
  15      -0.00000    -0.00000     1.00000

                     WFN1 Final Alpha Natural Orbital Analysis
                     -----------------------------------------

 Vector    1  Occ=1.000000D+00  E=-4.744400D+00
              MO Center= -4.7D-17,  2.0D-18, -9.9D-19, r^2= 6.5D-02
   Bfn.  Coefficient  Atom+Function         Bfn.  Coefficient  Atom+Function  
  ----- ------------  ---------------      ----- ------------  ---------------
     1     -0.998242  1 Be s          

 Vector    2  Occ=6.166013D-01  E=-1.906414D-01
              MO Center= -1.4D-15,  6.6D-17,  1.4D-16, r^2= 2.1D+00
   Bfn.  Coefficient  Atom+Function         Bfn.  Coefficient  Atom+Function  
  ----- ------------  ---------------      ----- ------------  ---------------
     6     -0.746631  1 Be s                  2     -0.274416  1 Be s          
     1      0.221533  1 Be s          

 Vector    3  Occ=1.277933D-01  E=-2.229294D-02
              MO Center=  6.3D-16,  1.5D-16,  4.7D-16, r^2= 2.7D+00
   Bfn.  Coefficient  Atom+Function         Bfn.  Coefficient  Atom+Function  
  ----- ------------  ---------------      ----- ------------  ---------------
     7     -0.614458  1 Be px                 3     -0.477031  1 Be px         
     8     -0.029997  1 Be py         

 Vector    4  Occ=1.279238D-01  E=-2.231517D-02
              MO Center= -1.0D-16,  1.5D-16,  2.7D-16, r^2= 2.7D+00
   Bfn.  Coefficient  Atom+Function         Bfn.  Coefficient  Atom+Function  
  ----- ------------  ---------------      ----- ------------  ---------------
     8     -0.611499  1 Be py                 4     -0.475637  1 Be py         
     9      0.056357  1 Be pz                 5      0.043836  1 Be pz         
     7      0.028947  1 Be px         

 Vector    5  Occ=1.276817D-01  E=-2.227406D-02
              MO Center= -3.1D-16, -1.1D-15, -3.0D-16, r^2= 2.7D+00
   Bfn.  Coefficient  Atom+Function         Bfn.  Coefficient  Atom+Function  
  ----- ------------  ---------------      ----- ------------  ---------------
     9     -0.612738  1 Be pz                 5     -0.475441  1 Be pz         
     8     -0.055876  1 Be py                 4     -0.043356  1 Be py         

 Vector    6  Occ=3.327630D-16  E= 9.982066D-18
              MO Center=  1.7D-15, -2.7D-16, -1.9D-15, r^2= 3.8D+00
   Bfn.  Coefficient  Atom+Function         Bfn.  Coefficient  Atom+Function  
  ----- ------------  ---------------      ----- ------------  ---------------
     2     -2.135389  1 Be s                  6      1.913089  1 Be s          
    13      0.051171  1 Be dyy               15      0.051178  1 Be dzz        
    10      0.050822  1 Be dxx        

 Vector    7  Occ=1.684922D-18  E=-7.501178D-20
              MO Center=  9.2D-15, -1.3D-14,  1.4D-14, r^2= 3.7D+00
   Bfn.  Coefficient  Atom+Function         Bfn.  Coefficient  Atom+Function  
  ----- ------------  ---------------      ----- ------------  ---------------
     3      1.235546  1 Be px                 7     -1.175371  1 Be px         
     4     -0.234694  1 Be py                 8      0.223366  1 Be py         
     5      0.027507  1 Be pz                 9     -0.026178  1 Be pz         

 Vector    8  Occ=1.558924D-17  E=-6.725524D-19
              MO Center=  1.6D-14,  4.0D-14,  9.2D-15, r^2= 3.7D+00
   Bfn.  Coefficient  Atom+Function         Bfn.  Coefficient  Atom+Function  
  ----- ------------  ---------------      ----- ------------  ---------------
     5     -1.253000  1 Be pz                 9      1.191846  1 Be pz         
     4     -0.111926  1 Be py                 8      0.106462  1 Be py         

 Vector    9  Occ=1.671220D-17  E=-5.774443D-19
              MO Center=  2.0D-15, -2.0D-15,  1.9D-14, r^2= 3.7D+00
   Bfn.  Coefficient  Atom+Function         Bfn.  Coefficient  Atom+Function  
  ----- ------------  ---------------      ----- ------------  ---------------
     4     -1.230584  1 Be py                 8      1.171076  1 Be py         
     3     -0.236263  1 Be px                 7      0.224735  1 Be px         
     5      0.108672  1 Be pz                 9     -0.103418  1 Be pz         

 Vector   10  Occ=4.851777D-11  E= 2.490417D-11
              MO Center= -1.2D-14, -2.4D-14, -1.7D-14, r^2= 1.2D+00
   Bfn.  Coefficient  Atom+Function         Bfn.  Coefficient  Atom+Function  
  ----- ------------  ---------------      ----- ------------  ---------------
    14      1.593852  1 Be dyz               11      0.413800  1 Be dxy        
    13      0.283277  1 Be dyy               15     -0.221455  1 Be dzz        
    12      0.148529  1 Be dxz               10     -0.062220  1 Be dxx        

 Vector   11  Occ=1.556042D-13  E= 7.987228D-14
              MO Center=  2.8D-15,  4.2D-15, -1.6D-14, r^2= 1.2D+00
   Bfn.  Coefficient  Atom+Function         Bfn.  Coefficient  Atom+Function  
  ----- ------------  ---------------      ----- ------------  ---------------
    13      0.874665  1 Be dyy               15     -0.753748  1 Be dzz        
    14     -0.531042  1 Be dyz               12      0.142394  1 Be dxz        
    10     -0.120869  1 Be dxx               11     -0.046320  1 Be dxy        

 Vector   12  Occ=6.632134D-11  E= 3.404289D-11
              MO Center= -1.1D-14,  1.4D-15, -9.8D-15, r^2= 1.2D+00
   Bfn.  Coefficient  Atom+Function         Bfn.  Coefficient  Atom+Function  
  ----- ------------  ---------------      ----- ------------  ---------------
    12      1.324498  1 Be dxz               10     -0.608918  1 Be dxx        
    15      0.442373  1 Be dzz               11     -0.231548  1 Be dxy        
    13      0.168600  1 Be dyy               14     -0.047857  1 Be dyz        

 Vector   13  Occ=4.037718D-11  E= 2.072577D-11
              MO Center=  5.3D-15, -8.0D-15, -7.7D-15, r^2= 1.2D+00
   Bfn.  Coefficient  Atom+Function         Bfn.  Coefficient  Atom+Function  
  ----- ------------  ---------------      ----- ------------  ---------------
    11      1.177291  1 Be dxy               12      0.875324  1 Be dxz        
    10      0.498507  1 Be dxx               14     -0.317679  1 Be dyz        
    13     -0.267105  1 Be dyy               15     -0.231479  1 Be dzz        

 Vector   14  Occ=5.692228D-12  E= 2.921848D-12
              MO Center= -1.2D-14,  2.4D-15,  9.1D-15, r^2= 1.2D+00
   Bfn.  Coefficient  Atom+Function         Bfn.  Coefficient  Atom+Function  
  ----- ------------  ---------------      ----- ------------  ---------------
    11      1.177708  1 Be dxy               12     -0.661192  1 Be dxz        
    10     -0.601166  1 Be dxx               15      0.366313  1 Be dzz        
    14     -0.272749  1 Be dyz               13      0.234803  1 Be dyy        

 Vector   15  Occ=1.161383D-18  E= 2.430418D-18
              MO Center= -4.1D-16, -1.1D-16, -4.9D-19, r^2= 8.6D-01
   Bfn.  Coefficient  Atom+Function         Bfn.  Coefficient  Atom+Function  
  ----- ------------  ---------------      ----- ------------  ---------------
     2      6.711289  1 Be s                 10     -2.845357  1 Be dxx        
    13     -2.845172  1 Be dyy               15     -2.845093  1 Be dzz        
     6     -0.440280  1 Be s                  1     -0.311103  1 Be s          


                     WFN1 Final Beta Natural Orbital Analysis
                     ----------------------------------------

 Vector    1  Occ=1.000000D+00  E=-4.744400D+00
              MO Center= -4.7D-17,  2.0D-18, -9.9D-19, r^2= 6.5D-02
   Bfn.  Coefficient  Atom+Function         Bfn.  Coefficient  Atom+Function  
  ----- ------------  ---------------      ----- ------------  ---------------
     1     -0.998242  1 Be s          

 Vector    2  Occ=6.166013D-01  E=-1.906414D-01
              MO Center= -1.4D-15,  6.6D-17,  1.4D-16, r^2= 2.1D+00
   Bfn.  Coefficient  Atom+Function         Bfn.  Coefficient  Atom+Function  
  ----- ------------  ---------------      ----- ------------  ---------------
     6     -0.746631  1 Be s                  2     -0.274416  1 Be s          
     1      0.221533  1 Be s          

 Vector    3  Occ=1.277933D-01  E=-2.229294D-02
              MO Center=  6.3D-16,  1.5D-16,  4.7D-16, r^2= 2.7D+00
   Bfn.  Coefficient  Atom+Function         Bfn.  Coefficient  Atom+Function  
  ----- ------------  ---------------      ----- ------------  ---------------
     7     -0.614458  1 Be px                 3     -0.477031  1 Be px         
     8     -0.029997  1 Be py         

 Vector    4  Occ=1.279238D-01  E=-2.231517D-02
              MO Center= -1.0D-16,  1.5D-16,  2.7D-16, r^2= 2.7D+00
   Bfn.  Coefficient  Atom+Function         Bfn.  Coefficient  Atom+Function  
  ----- ------------  ---------------      ----- ------------  ---------------
     8     -0.611499  1 Be py                 4     -0.475637  1 Be py         
     9      0.056357  1 Be pz                 5      0.043836  1 Be pz         
     7      0.028947  1 Be px         

 Vector    5  Occ=1.276817D-01  E=-2.227406D-02
              MO Center= -3.1D-16, -1.1D-15, -3.0D-16, r^2= 2.7D+00
   Bfn.  Coefficient  Atom+Function         Bfn.  Coefficient  Atom+Function  
  ----- ------------  ---------------      ----- ------------  ---------------
     9     -0.612738  1 Be pz                 5     -0.475441  1 Be pz         
     8     -0.055876  1 Be py                 4     -0.043356  1 Be py         

 Vector    6  Occ=3.327630D-16  E= 9.982066D-18
              MO Center=  1.7D-15, -2.7D-16, -1.9D-15, r^2= 3.8D+00
   Bfn.  Coefficient  Atom+Function         Bfn.  Coefficient  Atom+Function  
  ----- ------------  ---------------      ----- ------------  ---------------
     2     -2.135389  1 Be s                  6      1.913089  1 Be s          
    13      0.051171  1 Be dyy               15      0.051178  1 Be dzz        
    10      0.050822  1 Be dxx        

 Vector    7  Occ=1.684922D-18  E=-7.501178D-20
              MO Center=  9.2D-15, -1.3D-14,  1.4D-14, r^2= 3.7D+00
   Bfn.  Coefficient  Atom+Function         Bfn.  Coefficient  Atom+Function  
  ----- ------------  ---------------      ----- ------------  ---------------
     3      1.235546  1 Be px                 7     -1.175371  1 Be px         
     4     -0.234694  1 Be py                 8      0.223366  1 Be py         
     5      0.027507  1 Be pz                 9     -0.026178  1 Be pz         

 Vector    8  Occ=1.558924D-17  E=-6.725524D-19
              MO Center=  1.6D-14,  4.0D-14,  9.2D-15, r^2= 3.7D+00
   Bfn.  Coefficient  Atom+Function         Bfn.  Coefficient  Atom+Function  
  ----- ------------  ---------------      ----- ------------  ---------------
     5     -1.253000  1 Be pz                 9      1.191846  1 Be pz         
     4     -0.111926  1 Be py                 8      0.106462  1 Be py         

 Vector    9  Occ=1.671220D-17  E=-5.774443D-19
              MO Center=  2.0D-15, -2.0D-15,  1.9D-14, r^2= 3.7D+00
   Bfn.  Coefficient  Atom+Function         Bfn.  Coefficient  Atom+Function  
  ----- ------------  ---------------      ----- ------------  ---------------
     4     -1.230584  1 Be py                 8      1.171076  1 Be py         
     3     -0.236263  1 Be px                 7      0.224735  1 Be px         
     5      0.108672  1 Be pz                 9     -0.103418  1 Be pz         

 Vector   10  Occ=4.851777D-11  E= 2.490417D-11
              MO Center= -1.2D-14, -2.4D-14, -1.7D-14, r^2= 1.2D+00
   Bfn.  Coefficient  Atom+Function         Bfn.  Coefficient  Atom+Function  
  ----- ------------  ---------------      ----- ------------  ---------------
    14      1.593852  1 Be dyz               11      0.413800  1 Be dxy        
    13      0.283277  1 Be dyy               15     -0.221455  1 Be dzz        
    12      0.148529  1 Be dxz               10     -0.062220  1 Be dxx        

 Vector   11  Occ=1.556042D-13  E= 7.987228D-14
              MO Center=  2.8D-15,  4.2D-15, -1.6D-14, r^2= 1.2D+00
   Bfn.  Coefficient  Atom+Function         Bfn.  Coefficient  Atom+Function  
  ----- ------------  ---------------      ----- ------------  ---------------
    13      0.874665  1 Be dyy               15     -0.753748  1 Be dzz        
    14     -0.531042  1 Be dyz               12      0.142394  1 Be dxz        
    10     -0.120869  1 Be dxx               11     -0.046320  1 Be dxy        

 Vector   12  Occ=6.632134D-11  E= 3.404289D-11
              MO Center= -1.1D-14,  1.4D-15, -9.8D-15, r^2= 1.2D+00
   Bfn.  Coefficient  Atom+Function         Bfn.  Coefficient  Atom+Function  
  ----- ------------  ---------------      ----- ------------  ---------------
    12      1.324498  1 Be dxz               10     -0.608918  1 Be dxx        
    15      0.442373  1 Be dzz               11     -0.231548  1 Be dxy        
    13      0.168600  1 Be dyy               14     -0.047857  1 Be dyz        

 Vector   13  Occ=4.037718D-11  E= 2.072577D-11
              MO Center=  5.3D-15, -8.0D-15, -7.7D-15, r^2= 1.2D+00
   Bfn.  Coefficient  Atom+Function         Bfn.  Coefficient  Atom+Function  
  ----- ------------  ---------------      ----- ------------  ---------------
    11      1.177291  1 Be dxy               12      0.875324  1 Be dxz        
    10      0.498507  1 Be dxx               14     -0.317679  1 Be dyz        
    13     -0.267105  1 Be dyy               15     -0.231479  1 Be dzz        

 Vector   14  Occ=5.692228D-12  E= 2.921848D-12
              MO Center= -1.2D-14,  2.4D-15,  9.1D-15, r^2= 1.2D+00
   Bfn.  Coefficient  Atom+Function         Bfn.  Coefficient  Atom+Function  
  ----- ------------  ---------------      ----- ------------  ---------------
    11      1.177708  1 Be dxy               12     -0.661192  1 Be dxz        
    10     -0.601166  1 Be dxx               15      0.366313  1 Be dzz        
    14     -0.272749  1 Be dyz               13      0.234803  1 Be dyy        

 Vector   15  Occ=1.161383D-18  E= 2.430418D-18
              MO Center= -4.1D-16, -1.1D-16, -4.9D-19, r^2= 8.6D-01
   Bfn.  Coefficient  Atom+Function         Bfn.  Coefficient  Atom+Function  
  ----- ------------  ---------------      ----- ------------  ---------------
     2      6.711289  1 Be s                 10     -2.845357  1 Be dxx        
    13     -2.845172  1 Be dyy               15     -2.845093  1 Be dzz        
     6     -0.440280  1 Be s                  1     -0.311103  1 Be s          


 Task  times  cpu:       86.6s     wall:      100.6s


                                NWChem Input Module
                                -------------------


 Summary of allocated global arrays
-----------------------------------
  No active global arrays



                         GA Statistics for process    0
                         ------------------------------

       create   destroy   get      put      acc     scatter   gather  read&inc
calls:   90       90     9.26e+06 1.51e+04 5.31e+06    0        0        8     
number of processes/call 1.00e+00 1.00e+00 1.00e+00 0.00e+00 0.00e+00
bytes total:             1.34e+10 2.50e+07 9.56e+09 0.00e+00 0.00e+00 6.40e+01
bytes remote:            0.00e+00 0.00e+00 0.00e+00 0.00e+00 0.00e+00 0.00e+00
Max memory consumed for GA by this process: 61200 bytes

MA_summarize_allocated_blocks: starting scan ...
MA_summarize_allocated_blocks: scan completed: 0 heap blocks, 0 stack blocks
MA usage statistics:

	allocation statistics:
					      heap	     stack
					      ----	     -----
	current number of blocks	         0	         0
	maximum number of blocks	        18	        17
	current total bytes		         0	         0
	maximum total bytes		   3210072	  22508632
	maximum total K-bytes		      3211	     22509
	maximum total M-bytes		         4	        23


                                     CITATION
                                     --------
                Please cite the following reference when publishing
                           results obtained with NWChem:

                 M. Valiev, E.J. Bylaska, N. Govind, K. Kowalski,
              T.P. Straatsma, H.J.J. van Dam, D. Wang, J. Nieplocha,
                        E. Apra, T.L. Windus, W.A. de Jong
                 "NWChem: a comprehensive and scalable open-source
                  solution for large scale molecular simulations"
                      Comput. Phys. Commun. 181, 1477 (2010)
                           doi:10.1016/j.cpc.2010.04.018

                                      AUTHORS
                                      -------
          E. Apra, E. J. Bylaska, W. A. de Jong, N. Govind, K. Kowalski,
       T. P. Straatsma, M. Valiev, H. J. J. van Dam, D. Wang, T. L. Windus,
        J. Hammond, J. Autschbach, K. Bhaskaran-Nair, J. Brabec, K. Lopata,
    S. A. Fischer, S. Krishnamoorthy, M. Jacquelin, W. Ma, M. Klemm, O. Villa,
      Y. Chen, V. Anisimov, F. Aquino, S. Hirata, M. T. Hackler, V. Konjkov,
      T. Risthaus, M. Malagoli, A. Marenich, A. Otero-de-la-Roza, J. Mullin,
        P. Nichols, R. Peverati, J. Pittner, Y. Zhao, P.-D. Fan, A. Fonari,
       M. Williamson, R. J. Harrison, J. R. Rehr, M. Dupuis, D. Silverstein,
    D. M. A. Smith, J. Nieplocha, V. Tipparaju, M. Krishnan, B. E. Van Kuiken,
        A. Vazquez-Mayagoitia, L. Jensen, M. Swart, Q. Wu, T. Van Voorhis,
     A. A. Auer, M. Nooijen, L. D. Crosby, E. Brown, G. Cisneros, G. I. Fann,
   H. Fruchtl, J. Garza, K. Hirao, R. A. Kendall, J. A. Nichols, K. Tsemekhman,
    K. Wolinski, J. Anchell, D. E. Bernholdt, P. Borowski, T. Clark, D. Clerc,
   H. Dachsel, M. J. O. Deegan, K. Dyall, D. Elwood, E. Glendening, M. Gutowski,
   A. C. Hess, J. Jaffe, B. G. Johnson, J. Ju, R. Kobayashi, R. Kutteh, Z. Lin,
   R. Littlefield, X. Long, B. Meng, T. Nakajima, S. Niu, L. Pollack, M. Rosing,
   K. Glaesemann, G. Sandrone, M. Stave, H. Taylor, G. Thomas, J. H. van Lenthe,
                               A. T. Wong, Z. Zhang.

 Total times  cpu:       87.1s     wall:      111.1s
