 argument  1 = input-wf.nw



============================== echo of input deck ==============================
echo
start wfn1_dat
geometry units au noautoz
  H 0 0 -2.19434600000000000000
  H 0 0  2.19434600000000000000
  symmetry cs
end
basis
  H library 6-31g**
end
set wfn1:input_vectors "atomic"
set wfn1:solver "monte-carlo"
set wfn1:print_error F
set wfn1:t_initial 0.1
#set wfn1:corr_expr "wfn1_mx"
set wfn1:corr_expr "wfn1c"
set wfn1:t_bath 0.0
set wfn1:maxit  20000
task wfn1 energy
================================================================================


                                         
                                         


              Northwest Computational Chemistry Package (NWChem) 6.8
              ------------------------------------------------------


                    Environmental Molecular Sciences Laboratory
                       Pacific Northwest National Laboratory
                                Richland, WA 99352

                              Copyright (c) 1994-2015
                       Pacific Northwest National Laboratory
                            Battelle Memorial Institute

             NWChem is an open-source computational chemistry package
                        distributed under the terms of the
                      Educational Community License (ECL) 2.0
             A copy of the license is included with this distribution
                              in the LICENSE.TXT file

                                  ACKNOWLEDGMENT
                                  --------------

            This software and its documentation were developed at the
            EMSL at Pacific Northwest National Laboratory, a multiprogram
            national laboratory, operated for the U.S. Department of Energy
            by Battelle under Contract Number DE-AC05-76RL01830. Support
            for this work was provided by the Department of Energy Office
            of Biological and Environmental Research, Office of Basic
            Energy Sciences, and the Office of Advanced Scientific Computing.


           Job information
           ---------------

    hostname        = erato
    program         = ../../../bin/LINUX64/nwchem
    date            = Tue Mar  2 00:51:28 2021

    compiled        = Sun_Feb_28_18:02:42_2021
    source          = /home/hvandam/nwchem-1-wfn1
    nwchem branch   = Development
    nwchem revision = nwchem_on_git-124-gad72d19fff205e319ffbbf2bca37a04ded6ad57b
    ga revision     = nwchem_on_git-124-gad72d19
    use scalapack   = F
    input           = input-wf.nw
    prefix          = wfn1_dat.
    data base       = ./wfn1_dat.db
    status          = startup
    nproc           =        1
    time left       =     -1s



           Memory information
           ------------------

    heap     =   13107198 doubles =    100.0 Mbytes
    stack    =   13107195 doubles =    100.0 Mbytes
    global   =   26214400 doubles =    200.0 Mbytes (distinct from heap & stack)
    total    =   52428793 doubles =    400.0 Mbytes
    verify   = yes
    hardfail = no 


           Directory information
           ---------------------

  0 permanent = .
  0 scratch   = .




                                NWChem Input Module
                                -------------------


 Turning off AUTOSYM since
 SYMMETRY directive was detected!



                             Geometry "geometry" -> ""
                             -------------------------

 Output coordinates in a.u. (scale by  1.000000000 to convert to a.u.)

  No.       Tag          Charge          X              Y              Z
 ---- ---------------- ---------- -------------- -------------- --------------
    1 H                    1.0000     0.00000000     0.00000000    -2.19434600
    2 H                    1.0000     0.00000000     0.00000000     2.19434600

      Atomic Mass 
      ----------- 

      H                  1.007825


 Effective nuclear repulsion energy (a.u.)       0.2278583232

            Nuclear Dipole moment (a.u.) 
            ----------------------------
        X                 Y               Z
 ---------------- ---------------- ----------------
     0.0000000000     0.0000000000     0.0000000000

      Symmetry information
      --------------------

 Group name             Cs        
 Group number              2
 Group order               2
 No. of unique centers     1

      Symmetry unique atoms

     1


            XYZ format geometry
            -------------------
     2
 geometry
 H                     0.00000000     0.00000000    -1.16119798
 H                     0.00000000     0.00000000     1.16119798

                      Basis "ao basis" -> "" (cartesian)
                      -----
  H (Hydrogen)
  ------------
            Exponent  Coefficients 
       -------------- ---------------------------------------------------------
  1 S  1.87311370E+01  0.033495
  1 S  2.82539370E+00  0.234727
  1 S  6.40121700E-01  0.813757

  2 S  1.61277800E-01  1.000000

  3 P  1.10000000E+00  1.000000



 Summary of "ao basis" -> "" (cartesian)
 ------------------------------------------------------------------------------
       Tag                 Description            Shells   Functions and Types
 ---------------- ------------------------------  ------  ---------------------
 H                          6-31g**                  3        5   2s1p



                                NWChem WFN1 Module
                                ------------------



          No. of electrons :     2
           Alpha electrons :     1
            Beta electrons :     1
          Charge           :     0
          Spin multiplicity:     1

 HvD: wfn1_inpdft
 HvD: nquad_task =                     1
 HvD: iangquad   =                     0
 HvD: gridtype   = user      
 HvD: leb        =  T
 HvD: radgrid    = murakn    
 HvD: trunc_neigh=  T
 HvD: lssw       =  T
 HvD: whichssw   = erf1    
 HvD: mxnrad     =                     0
 HvD: mxnang     =                     0
 HVD: wfn1: movecs_in  = atomic                                                                                                                                                                                                                                                          
 HVD: wfn1: movecs_out = ./wfn1_dat.movecs                                                                                                                                                                                                                                               

      Superposition of Atomic Density Guess
      -------------------------------------

 Sum of atomic energies:          -0.99646508

      Non-variational initial energy
      ------------------------------

 Total energy =      -0.686435
 1-e energy   =      -1.452097
 2-e energy   =       0.537804
 HOMO         =      -0.240389
 LUMO         =      -0.137435

 iteration              energy           error
 ---------              ------           -----
         0         -0.86857002        0.200000
         1         -0.87526188        0.200000
         2         -0.87553451        0.200000
         3         -0.87738722        0.200000
         4         -0.87885994        0.200000
         5         -0.88139091        0.200000
         6         -0.88257537        0.200000
         7         -0.88265491        0.200000
         8         -0.88326590        0.200000
         9         -0.88328165        0.200000
        10         -0.88427967        0.200000
        11         -0.88459600        0.200000
        12         -0.88509069        0.200000
        13         -0.88570237        0.200000
        14         -0.88605843        0.200000
        15         -0.88816400        0.200000
        16         -0.88907852        0.200000
        17         -0.88937346        0.200000
        18         -0.88950614        0.200000
        19         -0.89031316        0.185175
        20         -0.89101107        0.185175
        21         -0.89120259        0.171449
        22         -0.89156287        0.171449
        23         -0.89178978        0.171449
        24         -0.89243879        0.146973
        25         -0.89250434        0.146973
        26         -0.89269433        0.146973
        27         -0.89277118        0.125992
        28         -0.89290728        0.125992
        29         -0.89311158        0.092587
        30         -0.89324844        0.092587
        31         -0.89361273        0.092587
        32         -0.89364168        0.092587
        33         -0.89388338        0.092587
        34         -0.89398184        0.092587
        35         -0.89435311        0.092587
        36         -0.89456527        0.085724
        37         -0.89459065        0.085724
        38         -0.89459151        0.085724
        39         -0.89460257        0.073487
        40         -0.89460759        0.073487
        41         -0.89473878        0.073487
        42         -0.89479750        0.073487
        43         -0.89487944        0.073487
        44         -0.89491681        0.073487
        45         -0.89497293        0.073487
        46         -0.89524254        0.073487
        47         -0.89526294        0.073487
        48         -0.89533297        0.073487
        49         -0.89533297        0.068040
        50         -0.89533656        0.062996
        51         -0.89540951        0.062996
        52         -0.89542608        0.062996
        53         -0.89556356        0.062996
        54         -0.89558650        0.062996
        55         -0.89562678        0.062996
        56         -0.89568256        0.062996
        57         -0.89570499        0.062996
        58         -0.89572589        0.062996
        59         -0.89580866        0.062996
        60         -0.89585737        0.062996
        61         -0.89585808        0.058326
        62         -0.89592261        0.058326
        63         -0.89601244        0.058326
        64         -0.89601866        0.058326
        65         -0.89603123        0.058326
        66         -0.89604451        0.058326
        67         -0.89613978        0.058326
        68         -0.89616435        0.058326
        69         -0.89616892        0.058326
        70         -0.89617276        0.058326
        71         -0.89631320        0.054003
        72         -0.89634539        0.054003
        73         -0.89635120        0.054003
        74         -0.89636467        0.054003
        75         -0.89638490        0.050000
        76         -0.89640354        0.050000
        77         -0.89641587        0.050000
        78         -0.89652238        0.050000
        79         -0.89654746        0.050000
        80         -0.89656769        0.050000
        81         -0.89670391        0.050000
        82         -0.89671607        0.046294
        83         -0.89673908        0.042862
        84         -0.89682771        0.042862
        85         -0.89691516        0.039685
        86         -0.89691671        0.039685
        87         -0.89694441        0.039685
        88         -0.89697299        0.036743
        89         -0.89700362        0.036743
        90         -0.89700768        0.036743
        91         -0.89702532        0.036743
        92         -0.89705036        0.036743
        93         -0.89707527        0.036743
        94         -0.89708146        0.036743
        95         -0.89708833        0.036743
        96         -0.89712361        0.036743
        97         -0.89712844        0.036743
        98         -0.89714360        0.036743
        99         -0.89716178        0.036743
       100         -0.89716939        0.034020
       101         -0.89720827        0.034020
       102         -0.89720969        0.034020
       103         -0.89721577        0.034020
       104         -0.89721942        0.034020
       105         -0.89725262        0.034020
       106         -0.89725854        0.034020
       107         -0.89728376        0.034020
       108         -0.89731691        0.034020
       109         -0.89733346        0.034020
       110         -0.89738592        0.034020
       111         -0.89741376        0.034020
       112         -0.89743511        0.034020
       113         -0.89744702        0.034020
       114         -0.89745881        0.034020
       115         -0.89746023        0.034020
       116         -0.89747495        0.034020
       117         -0.89750407        0.034020
       118         -0.89754635        0.034020
       119         -0.89755243        0.034020
       120         -0.89755577        0.034020
       121         -0.89756148        0.034020
       122         -0.89757283        0.034020
       123         -0.89757329        0.034020
       124         -0.89759023        0.034020
       125         -0.89761559        0.034020
       126         -0.89764011        0.034020
       127         -0.89765526        0.034020
       128         -0.89768192        0.034020
       129         -0.89768608        0.034020
       130         -0.89769917        0.034020
       131         -0.89770259        0.034020
       132         -0.89772990        0.034020
       133         -0.89775983        0.034020
       134         -0.89776021        0.034020
       135         -0.89778559        0.034020
       136         -0.89782109        0.034020
       137         -0.89782836        0.034020
       138         -0.89784204        0.034020
       139         -0.89786946        0.034020
       140         -0.89787892        0.031498
       141         -0.89788192        0.031498
       142         -0.89789227        0.031498
       143         -0.89789600        0.031498
       144         -0.89792838        0.027001
       145         -0.89794152        0.027001
       146         -0.89795185        0.027001
       147         -0.89795708        0.027001
       148         -0.89797143        0.027001
       149         -0.89797657        0.027001
       150         -0.89797972        0.027001
       151         -0.89798904        0.027001
       152         -0.89799235        0.027001
       153         -0.89799599        0.027001
       154         -0.89801646        0.027001
       155         -0.89802221        0.027001
       156         -0.89802555        0.027001
       157         -0.89804388        0.027001
       158         -0.89807101        0.027001
       159         -0.89807967        0.027001
       160         -0.89808414        0.027001
       161         -0.89808546        0.025000
       162         -0.89809361        0.025000
       163         -0.89812200        0.023147
       164         -0.89814197        0.023147
       165         -0.89814634        0.019843
       166         -0.89815451        0.019843
       167         -0.89815594        0.018372
       168         -0.89816085        0.018372
       169         -0.89818190        0.018372
       170         -0.89818701        0.018372
       171         -0.89819735        0.018372
       172         -0.89820450        0.018372
       173         -0.89821319        0.018372
       174         -0.89821861        0.018372
       175         -0.89822805        0.018372
       176         -0.89823972        0.018372
       177         -0.89824383        0.018372
       178         -0.89824876        0.018372
       179         -0.89825349        0.018372
       180         -0.89826134        0.018372
       181         -0.89827848        0.018372
       182         -0.89828101        0.018372
       183         -0.89828722        0.018372
       184         -0.89829254        0.018372
       185         -0.89829685        0.018372
       186         -0.89829798        0.018372
       187         -0.89831057        0.018372
       188         -0.89831454        0.018372
       189         -0.89832478        0.018372
       190         -0.89832970        0.018372
       191         -0.89834618        0.018372
       192         -0.89836695        0.018372
       193         -0.89837010        0.018372
       194         -0.89837760        0.017010
       195         -0.89837982        0.017010
       196         -0.89838101        0.017010
       197         -0.89838172        0.017010
       198         -0.89838905        0.017010
       199         -0.89839475        0.017010
       200         -0.89840271        0.017010
       201         -0.89840466        0.017010
       202         -0.89842224        0.017010
       203         -0.89844152        0.017010
       204         -0.89844574        0.017010
       205         -0.89845678        0.017010
       206         -0.89845864        0.017010
       207         -0.89846239        0.017010
       208         -0.89846473        0.017010
       209         -0.89847521        0.017010
       210         -0.89848148        0.017010
       211         -0.89849847        0.017010
       212         -0.89850603        0.017010
       213         -0.89850627        0.017010
       214         -0.89851180        0.017010
       215         -0.89852515        0.017010
       216         -0.89852609        0.017010
       217         -0.89853419        0.017010
       218         -0.89855297        0.017010
       219         -0.89855756        0.017010
       220         -0.89856042        0.017010
       221         -0.89856654        0.017010
       222         -0.89857073        0.017010
       223         -0.89857356        0.017010
       224         -0.89857414        0.017010
       225         -0.89857870        0.017010
       226         -0.89858087        0.017010
       227         -0.89858089        0.017010
       228         -0.89858091        0.015749
       229         -0.89858120        0.015749
       230         -0.89858173        0.015749
       231         -0.89858377        0.015749
       232         -0.89858757        0.015749
       233         -0.89859057        0.015749
       234         -0.89860681        0.015749
       235         -0.89862509        0.015749
       236         -0.89863024        0.015749
       237         -0.89863293        0.015749
       238         -0.89863346        0.015749
       239         -0.89863509        0.015749
       240         -0.89863646        0.015749
       241         -0.89863689        0.015749
       242         -0.89863749        0.015749
       243         -0.89864538        0.015749
       244         -0.89864622        0.015749
       245         -0.89865438        0.015749
       246         -0.89865848        0.015749
       247         -0.89865861        0.015749
       248         -0.89866252        0.015749
       249         -0.89867064        0.015749
       250         -0.89867129        0.015749
       251         -0.89867583        0.015749
       252         -0.89867728        0.015749
       253         -0.89867938        0.015749
       254         -0.89868153        0.015749
       255         -0.89868508        0.015749
       256         -0.89868641        0.015749
       257         -0.89869873        0.015749
       258         -0.89870073        0.015749
       259         -0.89871965        0.015749
       260         -0.89873726        0.015749
       261         -0.89873878        0.015749
       262         -0.89873938        0.015749
       263         -0.89874690        0.015749
       264         -0.89875144        0.015749
       265         -0.89875985        0.015749
       266         -0.89876850        0.015749
       267         -0.89877028        0.015749
       268         -0.89877660        0.015749
       269         -0.89877670        0.015749
       270         -0.89878091        0.015749
       271         -0.89878426        0.014582
       272         -0.89878882        0.014582
       273         -0.89879850        0.014582
       274         -0.89880994        0.014582
       275         -0.89881399        0.014582
       276         -0.89881564        0.014582
       277         -0.89881866        0.014582
       278         -0.89882188        0.014582
       279         -0.89882625        0.014582
       280         -0.89883199        0.014582
       281         -0.89883549        0.014582
       282         -0.89883612        0.014582
       283         -0.89883768        0.014582
       284         -0.89884088        0.014582
       285         -0.89885736        0.014582
       286         -0.89886470        0.014582
       287         -0.89887139        0.014582
       288         -0.89887419        0.014582
       289         -0.89888401        0.014582
       290         -0.89889359        0.014582
       291         -0.89890160        0.014582
       292         -0.89891097        0.014582
       293         -0.89892183        0.014582
       294         -0.89892679        0.014582
       295         -0.89893326        0.014582
       296         -0.89893657        0.014582
       297         -0.89893930        0.014582
       298         -0.89894048        0.014582
       299         -0.89894137        0.014582
       300         -0.89894479        0.014582
       301         -0.89895561        0.014582
       302         -0.89897024        0.014582
       303         -0.89897358        0.014582
       304         -0.89897599        0.013501
       305         -0.89898180        0.013501
       306         -0.89898946        0.013501
       307         -0.89899426        0.013501
       308         -0.89899742        0.013501
       309         -0.89901172        0.013501
       310         -0.89901819        0.013501
       311         -0.89901855        0.013501
       312         -0.89902819        0.013501
       313         -0.89903276        0.013501
       314         -0.89904274        0.013501
       315         -0.89904357        0.013501
       316         -0.89904648        0.013501
       317         -0.89905713        0.013501
       318         -0.89906325        0.013501
       319         -0.89906461        0.013501
       320         -0.89906464        0.013501
       321         -0.89906721        0.013501
       322         -0.89906979        0.013501
       323         -0.89907031        0.013501
       324         -0.89907565        0.013501
       325         -0.89908165        0.013501
       326         -0.89908203        0.013501
       327         -0.89908354        0.013501
       328         -0.89908597        0.013501
       329         -0.89908919        0.013501
       330         -0.89909309        0.013501
       331         -0.89909473        0.012500
       332         -0.89909524        0.012500
       333         -0.89911195        0.012500
       334         -0.89911965        0.012500
       335         -0.89912023        0.012500
       336         -0.89912370        0.012500
       337         -0.89912681        0.012500
       338         -0.89912889        0.012500
       339         -0.89913347        0.012500
       340         -0.89913498        0.012500
       341         -0.89913703        0.012500
       342         -0.89914738        0.012500
       343         -0.89914920        0.012500
       344         -0.89916015        0.012500
       345         -0.89916958        0.012500
       346         -0.89917082        0.012500
       347         -0.89917345        0.012500
       348         -0.89917379        0.012500
       349         -0.89917704        0.012500
       350         -0.89918257        0.012500
       351         -0.89920148        0.012500
       352         -0.89920417        0.012500
       353         -0.89920606        0.012500
       354         -0.89920862        0.012500
       355         -0.89920942        0.012500
       356         -0.89921378        0.012500
       357         -0.89921912        0.012500
       358         -0.89922317        0.012500
       359         -0.89922988        0.012500
       360         -0.89923587        0.012500
       361         -0.89924638        0.012500
       362         -0.89924847        0.012500
       363         -0.89925669        0.012500
       364         -0.89925887        0.012500
       365         -0.89926367        0.012500
       366         -0.89926370        0.012500
       367         -0.89927158        0.012500
       368         -0.89927244        0.012500
       369         -0.89927744        0.012500
       370         -0.89927790        0.012500
       371         -0.89928072        0.012500
       372         -0.89929480        0.012500
       373         -0.89930941        0.012500
       374         -0.89931217        0.012500
       375         -0.89931449        0.012500
       376         -0.89931533        0.012500
       377         -0.89931834        0.012500
       378         -0.89932120        0.012500
       379         -0.89932576        0.012500
       380         -0.89932688        0.012500
       381         -0.89933206        0.012500
       382         -0.89933241        0.012500
       383         -0.89934108        0.012500
       384         -0.89934418        0.012500
       385         -0.89934747        0.012500
       386         -0.89934816        0.012500
       387         -0.89935158        0.012500
       388         -0.89935364        0.012500
       389         -0.89935932        0.012500
       390         -0.89936299        0.012500
       391         -0.89936394        0.012500
       392         -0.89937092        0.012500
       393         -0.89937923        0.012500
       394         -0.89938407        0.012500
       395         -0.89938741        0.012500
       396         -0.89939534        0.012500
       397         -0.89940058        0.012500
       398         -0.89940111        0.012500
       399         -0.89940511        0.012500
       400         -0.89941531        0.012500
       401         -0.89942666        0.012500
       402         -0.89942710        0.012500
       403         -0.89942738        0.012500
       404         -0.89943087        0.012500
       405         -0.89943577        0.012500
       406         -0.89944427        0.012500
       407         -0.89944957        0.012500
       408         -0.89945975        0.012500
       409         -0.89946169        0.012500
       410         -0.89946472        0.011573
       411         -0.89947151        0.011573
       412         -0.89947378        0.011573
       413         -0.89948531        0.011573
       414         -0.89949496        0.011573
       415         -0.89950010        0.011573
       416         -0.89950466        0.011573
       417         -0.89951302        0.011573
       418         -0.89951518        0.011573
       419         -0.89952625        0.011573
       420         -0.89952804        0.011573
       421         -0.89953056        0.011573
       422         -0.89955127        0.011573
       423         -0.89955384        0.011573
       424         -0.89955503        0.011573
       425         -0.89955762        0.011573
       426         -0.89956202        0.011573
       427         -0.89956630        0.011573
       428         -0.89957381        0.011573
       429         -0.89957799        0.011573
       430         -0.89957886        0.011573
       431         -0.89958271        0.011573
       432         -0.89958760        0.011573
       433         -0.89959223        0.011573
       434         -0.89960624        0.011573
       435         -0.89962193        0.011573
       436         -0.89962820        0.011573
       437         -0.89963789        0.011573
       438         -0.89963914        0.011573
       439         -0.89964923        0.011573
       440         -0.89964975        0.011573
       441         -0.89965652        0.011573
       442         -0.89966513        0.011573
       443         -0.89967060        0.011573
       444         -0.89968082        0.011573
       445         -0.89968206        0.011573
       446         -0.89969097        0.011573
       447         -0.89969188        0.011573
       448         -0.89969466        0.011573
       449         -0.89969732        0.011573
       450         -0.89970482        0.011573
       451         -0.89971020        0.011573
       452         -0.89971736        0.011573
       453         -0.89973160        0.011573
       454         -0.89973633        0.011573
       455         -0.89973719        0.011573
       456         -0.89973786        0.011573
       457         -0.89974211        0.011573
       458         -0.89974562        0.011573
       459         -0.89974668        0.011573
       460         -0.89974696        0.011573
       461         -0.89974782        0.011573
       462         -0.89975411        0.011573
       463         -0.89975786        0.011573
       464         -0.89976317        0.011573
       465         -0.89976465        0.011573
       466         -0.89976520        0.011573
       467         -0.89976725        0.011573
       468         -0.89976821        0.011573
       469         -0.89977982        0.011573
       470         -0.89978691        0.011573
       471         -0.89978709        0.011573
       472         -0.89978753        0.011573
       473         -0.89979876        0.011573
       474         -0.89980340        0.011573
       475         -0.89980521        0.011573
       476         -0.89981069        0.011573
       477         -0.89981343        0.011573
       478         -0.89981738        0.011573
       479         -0.89982132        0.011573
       480         -0.89982326        0.011573
       481         -0.89983190        0.011573
       482         -0.89983464        0.011573
       483         -0.89983812        0.011573
       484         -0.89984381        0.011573
       485         -0.89984533        0.011573
       486         -0.89984593        0.011573
       487         -0.89985717        0.011573
       488         -0.89986161        0.011573
       489         -0.89986236        0.011573
       490         -0.89986345        0.011573
       491         -0.89986434        0.011573
       492         -0.89987306        0.011573
       493         -0.89987707        0.011573
       494         -0.89988161        0.011573
       495         -0.89988688        0.011573
       496         -0.89989073        0.011573
       497         -0.89989601        0.011573
       498         -0.89989898        0.011573
       499         -0.89989925        0.011573
       500         -0.89989946        0.011573
       501         -0.89989982        0.011573
       502         -0.89990389        0.011573
       503         -0.89990901        0.011573
       504         -0.89991982        0.011573
       505         -0.89992109        0.011573
       506         -0.89992147        0.011573
       507         -0.89993335        0.011573
       508         -0.89993505        0.011573
       509         -0.89993702        0.011573
       510         -0.89993784        0.011573
       511         -0.89994777        0.011573
       512         -0.89995851        0.011573
       513         -0.89995889        0.011573
       514         -0.89996008        0.011573
       515         -0.89996401        0.011573
       516         -0.89996877        0.011573
       517         -0.89997058        0.011573
       518         -0.89997973        0.011573
       519         -0.89998111        0.011573
       520         -0.89998383        0.011573
       521         -0.89999408        0.011573
       522         -0.89999881        0.011573
       523         -0.89999894        0.011573
       524         -0.90000951        0.011573
       525         -0.90000965        0.011573
       526         -0.90001280        0.011573
       527         -0.90001291        0.011573
       528         -0.90001829        0.011573
       529         -0.90002820        0.011573
       530         -0.90003274        0.011573
       531         -0.90003485        0.011573
       532         -0.90004128        0.011573
       533         -0.90004537        0.011573
       534         -0.90004835        0.011573
       535         -0.90005276        0.011573
       536         -0.90006138        0.011573
       537         -0.90006393        0.011573
       538         -0.90006552        0.011573
       539         -0.90007210        0.011573
       540         -0.90007229        0.011573
       541         -0.90007923        0.011573
       542         -0.90008140        0.011573
       543         -0.90008669        0.011573
       544         -0.90008884        0.011573
       545         -0.90010049        0.011573
       546         -0.90010186        0.011573
       547         -0.90010276        0.011573
       548         -0.90010842        0.011573
       549         -0.90011729        0.011573
       550         -0.90012165        0.011573
       551         -0.90012532        0.011573
       552         -0.90012641        0.011573
       553         -0.90013305        0.011573
       554         -0.90014572        0.011573
       555         -0.90014599        0.011573
       556         -0.90014629        0.011573
       557         -0.90015020        0.011573
       558         -0.90015029        0.011573
       559         -0.90015340        0.011573
       560         -0.90015396        0.011573
       561         -0.90016415        0.011573
       562         -0.90016653        0.011573
       563         -0.90016927        0.011573
       564         -0.90017272        0.011573
       565         -0.90018240        0.011573
       566         -0.90018968        0.011573
       567         -0.90019371        0.011573
       568         -0.90019623        0.011573
       569         -0.90019634        0.011573
       570         -0.90019995        0.011573
       571         -0.90020841        0.011573
       572         -0.90021004        0.011573
       573         -0.90022370        0.011573
       574         -0.90022496        0.011573
       575         -0.90023401        0.011573
       576         -0.90023614        0.011573
       577         -0.90024184        0.011573
       578         -0.90024740        0.011573
       579         -0.90025057        0.011573
       580         -0.90025075        0.011573
       581         -0.90025502        0.011573
       582         -0.90026300        0.011573
       583         -0.90026452        0.011573
       584         -0.90026631        0.011573
       585         -0.90027013        0.011573
       586         -0.90027078        0.011573
       587         -0.90027546        0.011573
       588         -0.90028168        0.011573
       589         -0.90028668        0.011573
       590         -0.90029733        0.011573
       591         -0.90030732        0.011573
       592         -0.90031119        0.011573
       593         -0.90031142        0.011573
       594         -0.90031352        0.011573
       595         -0.90031430        0.011573
       596         -0.90031895        0.011573
       597         -0.90032967        0.011573
       598         -0.90033144        0.011573
       599         -0.90033161        0.011573
       600         -0.90033261        0.011573
       601         -0.90033728        0.011573
       602         -0.90033781        0.011573
       603         -0.90034473        0.011573
       604         -0.90034505        0.011573
       605         -0.90035216        0.011573
       606         -0.90035239        0.011573
       607         -0.90035454        0.011573
       608         -0.90035503        0.011573
       609         -0.90035986        0.011573
       610         -0.90036919        0.011573
       611         -0.90037376        0.011573
       612         -0.90037380        0.011573
       613         -0.90037928        0.011573
       614         -0.90038654        0.011573
       615         -0.90038658        0.011573
       616         -0.90039127        0.011573
       617         -0.90040247        0.011573
       618         -0.90040478        0.011573
       619         -0.90040686        0.011573
       620         -0.90041516        0.011573
       621         -0.90041636        0.011573
       622         -0.90042173        0.011573
       623         -0.90042244        0.011573
       624         -0.90042629        0.011573
       625         -0.90043272        0.011573
       626         -0.90043669        0.011573
       627         -0.90043877        0.011573
       628         -0.90045842        0.011573
       629         -0.90046404        0.011573
       630         -0.90046595        0.011573
       631         -0.90047319        0.011573
       632         -0.90048619        0.011573
       633         -0.90049104        0.011573
       634         -0.90049368        0.011573
       635         -0.90049646        0.011573
       636         -0.90050179        0.011573
       637         -0.90050466        0.011573
       638         -0.90050957        0.011573
       639         -0.90051160        0.011573
       640         -0.90051832        0.011573
       641         -0.90051869        0.011573
       642         -0.90052184        0.011573
       643         -0.90053161        0.011573
       644         -0.90053162        0.011573
       645         -0.90053277        0.011573
       646         -0.90053468        0.011573
       647         -0.90053483        0.011573
       648         -0.90053604        0.011573
       649         -0.90054087        0.011573
       650         -0.90054594        0.011573
       651         -0.90054704        0.011573
       652         -0.90054951        0.011573
       653         -0.90055230        0.011573
       654         -0.90055263        0.011573
       655         -0.90055473        0.011573
       656         -0.90056504        0.011573
       657         -0.90056997        0.011573
       658         -0.90057086        0.011573
       659         -0.90057752        0.011573
       660         -0.90058373        0.011573
       661         -0.90058436        0.011573
       662         -0.90058901        0.011573
       663         -0.90059318        0.011573
       664         -0.90059346        0.011573
       665         -0.90059453        0.011573
       666         -0.90060505        0.011573
       667         -0.90060586        0.011573
       668         -0.90061140        0.011573
       669         -0.90061399        0.011573
       670         -0.90061469        0.011573
       671         -0.90061470        0.011573
       672         -0.90061491        0.011573
       673         -0.90061556        0.011573
       674         -0.90062060        0.011573
       675         -0.90062261        0.011573
       676         -0.90062664        0.011573
       677         -0.90063198        0.011573
       678         -0.90064371        0.011573
       679         -0.90064838        0.011573
       680         -0.90065462        0.011573
       681         -0.90065662        0.011573
       682         -0.90065830        0.011573
       683         -0.90067457        0.011573
       684         -0.90067869        0.011573
       685         -0.90068456        0.011573
       686         -0.90069174        0.011573
       687         -0.90069584        0.011573
       688         -0.90070620        0.011573
       689         -0.90070707        0.011573
       690         -0.90071818        0.011573
       691         -0.90072046        0.011573
       692         -0.90072358        0.011573
       693         -0.90073255        0.011573
       694         -0.90073631        0.011573
       695         -0.90073822        0.011573
       696         -0.90074370        0.011573
       697         -0.90074794        0.011573
       698         -0.90075333        0.011573
       699         -0.90075793        0.011573
       700         -0.90075906        0.011573
       701         -0.90076152        0.011573
       702         -0.90076340        0.011573
       703         -0.90077050        0.011573
       704         -0.90077128        0.011573
       705         -0.90077716        0.011573
       706         -0.90077772        0.011573
       707         -0.90077959        0.011573
       708         -0.90078441        0.011573
       709         -0.90079247        0.011573
       710         -0.90079314        0.011573
       711         -0.90079772        0.011573
       712         -0.90080672        0.011573
       713         -0.90081879        0.011573
       714         -0.90082783        0.011573
       715         -0.90083975        0.011573
       716         -0.90084296        0.011573
       717         -0.90085156        0.011573
       718         -0.90085267        0.011573
       719         -0.90085490        0.011573
       720         -0.90086608        0.011573
       721         -0.90087143        0.011573
       722         -0.90087227        0.011573
       723         -0.90087240        0.011573
       724         -0.90087274        0.011573
       725         -0.90087376        0.011573
       726         -0.90087642        0.011573
       727         -0.90087881        0.011573
       728         -0.90088547        0.011573
       729         -0.90089132        0.011573
       730         -0.90089605        0.011573
       731         -0.90090032        0.011573
       732         -0.90090910        0.011573
       733         -0.90091094        0.011573
       734         -0.90091851        0.011573
       735         -0.90091862        0.011573
       736         -0.90092863        0.011573
       737         -0.90093574        0.011573
       738         -0.90094175        0.011573
       739         -0.90095752        0.011573
       740         -0.90096052        0.011573
       741         -0.90096536        0.011573
       742         -0.90097590        0.011573
       743         -0.90098009        0.011573
       744         -0.90098054        0.011573
       745         -0.90098297        0.011573
       746         -0.90098689        0.011573
       747         -0.90099035        0.011573
       748         -0.90099683        0.011573
       749         -0.90099935        0.011573
       750         -0.90100122        0.011573
       751         -0.90100432        0.011573
       752         -0.90100975        0.011573
       753         -0.90101011        0.011573
       754         -0.90101204        0.011573
       755         -0.90103212        0.011573
       756         -0.90103410        0.011573
       757         -0.90103695        0.011573
       758         -0.90103911        0.011573
       759         -0.90104129        0.011573
       760         -0.90104564        0.011573
       761         -0.90105841        0.011573
       762         -0.90106591        0.011573
       763         -0.90106774        0.011573
       764         -0.90106844        0.011573
       765         -0.90107661        0.011573
       766         -0.90107829        0.011573
       767         -0.90107881        0.011573
       768         -0.90108096        0.011573
       769         -0.90108355        0.011573
       770         -0.90109115        0.011573
       771         -0.90110017        0.011573
       772         -0.90110431        0.011573
       773         -0.90111094        0.011573
       774         -0.90112134        0.011573
       775         -0.90112500        0.011573
       776         -0.90113190        0.011573
       777         -0.90113755        0.011573
       778         -0.90114187        0.011573
       779         -0.90115404        0.011573
       780         -0.90116436        0.011573
       781         -0.90116530        0.011573
       782         -0.90116874        0.011573
       783         -0.90116878        0.011573
       784         -0.90116989        0.011573
       785         -0.90117586        0.011573
       786         -0.90117745        0.011573
       787         -0.90118651        0.011573
       788         -0.90120345        0.011573
       789         -0.90120489        0.011573
       790         -0.90120576        0.011573
       791         -0.90121023        0.011573
       792         -0.90121749        0.011573
       793         -0.90122141        0.011573
       794         -0.90122439        0.011573
       795         -0.90122583        0.011573
       796         -0.90122765        0.011573
       797         -0.90123687        0.011573
       798         -0.90124497        0.011573
       799         -0.90124504        0.011573
       800         -0.90125250        0.011573
       801         -0.90125659        0.011573
       802         -0.90125909        0.011573
       803         -0.90126569        0.011573
       804         -0.90127580        0.011573
       805         -0.90128264        0.011573
       806         -0.90128903        0.011573
       807         -0.90128991        0.011573
       808         -0.90129557        0.011573
       809         -0.90130626        0.011573
       810         -0.90131796        0.011573
       811         -0.90132562        0.011573
       812         -0.90133304        0.011573
       813         -0.90133328        0.011573
       814         -0.90133780        0.011573
       815         -0.90133987        0.011573
       816         -0.90134242        0.011573
       817         -0.90134269        0.011573
       818         -0.90134595        0.011573
       819         -0.90134835        0.011573
       820         -0.90135196        0.011573
       821         -0.90135475        0.011573
       822         -0.90136272        0.011573
       823         -0.90137205        0.011573
       824         -0.90137305        0.011573
       825         -0.90137735        0.011573
       826         -0.90138134        0.011573
       827         -0.90138414        0.011573
       828         -0.90138425        0.011573
       829         -0.90138967        0.011573
       830         -0.90139592        0.011573
       831         -0.90140556        0.011573
       832         -0.90140915        0.011573
       833         -0.90141669        0.011573
       834         -0.90142035        0.011573
       835         -0.90143146        0.011573
       836         -0.90143693        0.011573
       837         -0.90144399        0.011573
       838         -0.90145232        0.011573
       839         -0.90145472        0.011573
       840         -0.90145623        0.011573
       841         -0.90145791        0.011573
       842         -0.90146303        0.011573
       843         -0.90147813        0.011573
       844         -0.90147925        0.011573
       845         -0.90148251        0.011573
       846         -0.90148544        0.011573
       847         -0.90148808        0.011573
       848         -0.90148989        0.011573
       849         -0.90149085        0.011573
       850         -0.90149115        0.011573
       851         -0.90149594        0.011573
       852         -0.90149823        0.011573
       853         -0.90150371        0.011573
       854         -0.90150645        0.011573
       855         -0.90150745        0.011573
       856         -0.90150956        0.011573
       857         -0.90151531        0.011573
       858         -0.90152226        0.011573
       859         -0.90153046        0.011573
       860         -0.90153418        0.011573
       861         -0.90154086        0.011573
       862         -0.90154263        0.011573
       863         -0.90154628        0.011573
       864         -0.90154853        0.011573
       865         -0.90154975        0.011573
       866         -0.90155391        0.011573
       867         -0.90156220        0.011573
       868         -0.90157044        0.011573
       869         -0.90157501        0.011573
       870         -0.90158122        0.011573
       871         -0.90158368        0.011573
       872         -0.90158393        0.011573
       873         -0.90158514        0.011573
       874         -0.90159545        0.011573
       875         -0.90160877        0.011573
       876         -0.90160890        0.011573
       877         -0.90161159        0.011573
       878         -0.90161420        0.011573
       879         -0.90162783        0.011573
       880         -0.90162919        0.011573
       881         -0.90163331        0.011573
       882         -0.90163485        0.011573
       883         -0.90163559        0.011573
       884         -0.90164087        0.011573
       885         -0.90164242        0.011573
       886         -0.90164630        0.011573
       887         -0.90165834        0.011573
       888         -0.90166533        0.011573
       889         -0.90166680        0.011573
       890         -0.90166930        0.011573
       891         -0.90167344        0.011573
       892         -0.90167656        0.011573
       893         -0.90167946        0.011573
       894         -0.90168317        0.011573
       895         -0.90169102        0.011573
       896         -0.90169385        0.011573
       897         -0.90170832        0.011573
       898         -0.90170946        0.011573
       899         -0.90171277        0.011573
       900         -0.90171948        0.011573
       901         -0.90172013        0.011573
       902         -0.90172839        0.011573
       903         -0.90172855        0.011573
       904         -0.90173548        0.011573
       905         -0.90174476        0.011573
       906         -0.90174528        0.011573
       907         -0.90174747        0.011573
       908         -0.90175247        0.011573
       909         -0.90175673        0.011573
       910         -0.90176637        0.011573
       911         -0.90176820        0.011573
       912         -0.90177200        0.011573
       913         -0.90177895        0.011573
       914         -0.90178308        0.011573
       915         -0.90178441        0.011573
       916         -0.90179502        0.011573
       917         -0.90179544        0.011573
       918         -0.90180700        0.011573
       919         -0.90181508        0.011573
       920         -0.90181748        0.011573
       921         -0.90182229        0.011573
       922         -0.90182744        0.011573
       923         -0.90182962        0.011573
       924         -0.90183282        0.011573
       925         -0.90183749        0.011573
       926         -0.90184069        0.011573
       927         -0.90184785        0.011573
       928         -0.90185444        0.011573
       929         -0.90186327        0.011573
       930         -0.90187308        0.011573
       931         -0.90187531        0.011573
       932         -0.90187540        0.011573
       933         -0.90187938        0.011573
       934         -0.90188743        0.011573
       935         -0.90189278        0.011573
       936         -0.90189487        0.011573
       937         -0.90189561        0.011573
       938         -0.90189921        0.011573
       939         -0.90189938        0.011573
       940         -0.90190652        0.011573
       941         -0.90190894        0.011573
       942         -0.90192862        0.011573
       943         -0.90193501        0.011573
       944         -0.90194605        0.011573
       945         -0.90195775        0.011573
       946         -0.90196431        0.011573
       947         -0.90196662        0.011573
       948         -0.90197173        0.011573
       949         -0.90197724        0.011573
       950         -0.90198198        0.011573
       951         -0.90198358        0.011573
       952         -0.90198405        0.011573
       953         -0.90198706        0.011573
       954         -0.90199798        0.011573
       955         -0.90200032        0.011573
       956         -0.90200689        0.011573
       957         -0.90200759        0.011573
       958         -0.90201531        0.011573
       959         -0.90203047        0.011573
       960         -0.90203056        0.011573
       961         -0.90203138        0.010716
       962         -0.90203333        0.010716
       963         -0.90203383        0.010716
       964         -0.90203735        0.010716
       965         -0.90204625        0.010716
       966         -0.90205273        0.010716
       967         -0.90205514        0.010716
       968         -0.90205785        0.010716
       969         -0.90206378        0.010716
       970         -0.90206552        0.010716
       971         -0.90207066        0.010716
       972         -0.90207624        0.010716
       973         -0.90207951        0.010716
       974         -0.90208087        0.010716
       975         -0.90208974        0.010716
       976         -0.90209184        0.010716
       977         -0.90209444        0.010716
       978         -0.90209638        0.010716
       979         -0.90210293        0.010716
       980         -0.90210689        0.010716
       981         -0.90211328        0.010716
       982         -0.90211915        0.010716
       983         -0.90212184        0.010716
       984         -0.90212288        0.010716
       985         -0.90213214        0.010716
       986         -0.90213303        0.010716
       987         -0.90213686        0.010716
       988         -0.90213902        0.010716
       989         -0.90214127        0.010716
       990         -0.90214702        0.010716
       991         -0.90215487        0.010716
       992         -0.90215708        0.010716
       993         -0.90216452        0.010716
       994         -0.90216504        0.010716
       995         -0.90216552        0.010716
       996         -0.90217013        0.010716
       997         -0.90217281        0.010716
       998         -0.90218059        0.010716
       999         -0.90218135        0.010716
      1000         -0.90218538        0.010716
      1001         -0.90218579        0.010716
      1002         -0.90218596        0.010716
      1003         -0.90219188        0.010716
      1004         -0.90219465        0.010716
      1005         -0.90219468        0.010716
      1006         -0.90219996        0.010716
      1007         -0.90220349        0.010716
      1008         -0.90220509        0.010716
      1009         -0.90220574        0.010716
      1010         -0.90221250        0.010716
      1011         -0.90221445        0.010716
      1012         -0.90221622        0.010716
      1013         -0.90221650        0.010716
      1014         -0.90222639        0.010716
      1015         -0.90222873        0.010716
      1016         -0.90223253        0.010716
      1017         -0.90223875        0.010716
      1018         -0.90223891        0.010716
      1019         -0.90224811        0.010716
      1020         -0.90225204        0.010716
      1021         -0.90225600        0.010716
      1022         -0.90226110        0.010716
      1023         -0.90226586        0.010716
      1024         -0.90226952        0.010716
      1025         -0.90227420        0.010716
      1026         -0.90228096        0.010716
      1027         -0.90228258        0.010716
      1028         -0.90228415        0.010716
      1029         -0.90228566        0.010716
      1030         -0.90229119        0.010716
      1031         -0.90229481        0.010716
      1032         -0.90229840        0.010716
      1033         -0.90229849        0.010716
      1034         -0.90229949        0.010716
      1035         -0.90230774        0.010716
      1036         -0.90231452        0.010716
      1037         -0.90231697        0.010716
      1038         -0.90231997        0.010716
      1039         -0.90232801        0.010716
      1040         -0.90233041        0.010716
      1041         -0.90233415        0.010716
      1042         -0.90233611        0.010716
      1043         -0.90233750        0.010716
      1044         -0.90234721        0.010716
      1045         -0.90234822        0.010716
      1046         -0.90235483        0.010716
      1047         -0.90236508        0.010716
      1048         -0.90236814        0.010716
      1049         -0.90238192        0.009921
      1050         -0.90238387        0.009921
      1051         -0.90238767        0.009921
      1052         -0.90239097        0.009921
      1053         -0.90239845        0.009921
      1054         -0.90240158        0.009921
      1055         -0.90240635        0.009921
      1056         -0.90241575        0.009921
      1057         -0.90241778        0.009921
      1058         -0.90241971        0.009921
      1059         -0.90242428        0.009921
      1060         -0.90242962        0.009921
      1061         -0.90243186        0.009921
      1062         -0.90243189        0.009921
      1063         -0.90243441        0.009921
      1064         -0.90243476        0.009921
      1065         -0.90244344        0.009921
      1066         -0.90244425        0.009921
      1067         -0.90244633        0.009921
      1068         -0.90244890        0.009921
      1069         -0.90245664        0.009921
      1070         -0.90245678        0.009921
      1071         -0.90246258        0.009921
      1072         -0.90246893        0.009921
      1073         -0.90247143        0.009921
      1074         -0.90248159        0.009921
      1075         -0.90248297        0.009921
      1076         -0.90248449        0.009921
      1077         -0.90248779        0.009921
      1078         -0.90249658        0.009921
      1079         -0.90250318        0.009921
      1080         -0.90250341        0.009921
      1081         -0.90250954        0.009921
      1082         -0.90252214        0.009921
      1083         -0.90252863        0.009921
      1084         -0.90253632        0.009921
      1085         -0.90253812        0.009921
      1086         -0.90254456        0.009921
      1087         -0.90255146        0.009921
      1088         -0.90255925        0.009921
      1089         -0.90256026        0.009921
      1090         -0.90256532        0.009921
      1091         -0.90256841        0.009921
      1092         -0.90257022        0.009921
      1093         -0.90257245        0.009921
      1094         -0.90257550        0.009921
      1095         -0.90257699        0.009921
      1096         -0.90257700        0.009921
      1097         -0.90257736        0.009921
      1098         -0.90258355        0.009921
      1099         -0.90258462        0.009921
      1100         -0.90258697        0.009921
      1101         -0.90259904        0.009921
      1102         -0.90260416        0.009921
      1103         -0.90260744        0.009921
      1104         -0.90261080        0.009921
      1105         -0.90261220        0.009921
      1106         -0.90261238        0.009921
      1107         -0.90261639        0.009921
      1108         -0.90261648        0.009921
      1109         -0.90263014        0.009921
      1110         -0.90263284        0.009921
      1111         -0.90263334        0.009921
      1112         -0.90263717        0.009921
      1113         -0.90263815        0.009921
      1114         -0.90264136        0.009921
      1115         -0.90264737        0.009921
      1116         -0.90264956        0.009921
      1117         -0.90266437        0.009921
      1118         -0.90266658        0.009921
      1119         -0.90267446        0.009921
      1120         -0.90268407        0.009921
      1121         -0.90268650        0.009921
      1122         -0.90270271        0.009921
      1123         -0.90271040        0.009921
      1124         -0.90271626        0.009921
      1125         -0.90271700        0.009921
      1126         -0.90272050        0.009921
      1127         -0.90272647        0.009921
      1128         -0.90273063        0.009921
      1129         -0.90273951        0.009921
      1130         -0.90274543        0.009921
      1131         -0.90275678        0.009921
      1132         -0.90275772        0.009921
      1133         -0.90276496        0.009921
      1134         -0.90276793        0.009921
      1135         -0.90276810        0.009921
      1136         -0.90277213        0.009921
      1137         -0.90277509        0.009921
      1138         -0.90278443        0.009921
      1139         -0.90279083        0.009921
      1140         -0.90279474        0.009921
      1141         -0.90280182        0.009921
      1142         -0.90280446        0.009921
      1143         -0.90280495        0.009921
      1144         -0.90281017        0.009921
      1145         -0.90281518        0.009921
      1146         -0.90281527        0.009921
      1147         -0.90281865        0.009921
      1148         -0.90282133        0.009921
      1149         -0.90282143        0.009921
      1150         -0.90282636        0.009921
      1151         -0.90282691        0.009921
      1152         -0.90283122        0.009921
      1153         -0.90284060        0.009921
      1154         -0.90284290        0.009921
      1155         -0.90284837        0.009921
      1156         -0.90284857        0.009921
      1157         -0.90285099        0.009921
      1158         -0.90285570        0.009921
      1159         -0.90285697        0.009921
      1160         -0.90286007        0.009921
      1161         -0.90286279        0.009921
      1162         -0.90286864        0.009921
      1163         -0.90286883        0.009921
      1164         -0.90287765        0.009921
      1165         -0.90288429        0.009921
      1166         -0.90289428        0.009921
      1167         -0.90289451        0.009921
      1168         -0.90289851        0.009921
      1169         -0.90290040        0.009921
      1170         -0.90290772        0.009921
      1171         -0.90291251        0.009921
      1172         -0.90292096        0.009921
      1173         -0.90292664        0.009921
      1174         -0.90292732        0.009921
      1175         -0.90293416        0.009921
      1176         -0.90293602        0.009921
      1177         -0.90293816        0.009921
      1178         -0.90294491        0.009186
      1179         -0.90294531        0.009186
      1180         -0.90294741        0.009186
      1181         -0.90294787        0.009186
      1182         -0.90295191        0.009186
      1183         -0.90295388        0.009186
      1184         -0.90295669        0.009186
      1185         -0.90295946        0.009186
      1186         -0.90296159        0.009186
      1187         -0.90296260        0.009186
      1188         -0.90296319        0.009186
      1189         -0.90296923        0.009186
      1190         -0.90297069        0.009186
      1191         -0.90298035        0.009186
      1192         -0.90298154        0.009186
      1193         -0.90298848        0.009186
      1194         -0.90298870        0.009186
      1195         -0.90299344        0.009186
      1196         -0.90299387        0.009186
      1197         -0.90299625        0.009186
      1198         -0.90299863        0.009186
      1199         -0.90300722        0.009186
      1200         -0.90301150        0.009186
      1201         -0.90301462        0.009186
      1202         -0.90301553        0.009186
      1203         -0.90302170        0.009186
      1204         -0.90302667        0.009186
      1205         -0.90303050        0.009186
      1206         -0.90303069        0.009186
      1207         -0.90303347        0.009186
      1208         -0.90303907        0.009186
      1209         -0.90304262        0.009186
      1210         -0.90304374        0.009186
      1211         -0.90304481        0.009186
      1212         -0.90304624        0.009186
      1213         -0.90305043        0.009186
      1214         -0.90305425        0.009186
      1215         -0.90305804        0.009186
      1216         -0.90306245        0.009186
      1217         -0.90306568        0.009186
      1218         -0.90306783        0.009186
      1219         -0.90307745        0.009186
      1220         -0.90308520        0.009186
      1221         -0.90309303        0.009186
      1222         -0.90309920        0.009186
      1223         -0.90310302        0.009186
      1224         -0.90310428        0.009186
      1225         -0.90310612        0.009186
      1226         -0.90310993        0.009186
      1227         -0.90311002        0.009186
      1228         -0.90311426        0.009186
      1229         -0.90312438        0.009186
      1230         -0.90313106        0.009186
      1231         -0.90313365        0.009186
      1232         -0.90313445        0.009186
      1233         -0.90314266        0.009186
      1234         -0.90314480        0.009186
      1235         -0.90314738        0.009186
      1236         -0.90314753        0.009186
      1237         -0.90314804        0.009186
      1238         -0.90315181        0.009186
      1239         -0.90315221        0.009186
      1240         -0.90315384        0.009186
      1241         -0.90315595        0.009186
      1242         -0.90316320        0.009186
      1243         -0.90317104        0.009186
      1244         -0.90317359        0.009186
      1245         -0.90317432        0.009186
      1246         -0.90317715        0.009186
      1247         -0.90318433        0.009186
      1248         -0.90318819        0.009186
      1249         -0.90319274        0.009186
      1250         -0.90319783        0.009186
      1251         -0.90319941        0.009186
      1252         -0.90320465        0.009186
      1253         -0.90320507        0.009186
      1254         -0.90320523        0.009186
      1255         -0.90320762        0.009186
      1256         -0.90320845        0.009186
      1257         -0.90321553        0.009186
      1258         -0.90321795        0.009186
      1259         -0.90322059        0.009186
      1260         -0.90322260        0.009186
      1261         -0.90322540        0.009186
      1262         -0.90322610        0.009186
      1263         -0.90322657        0.009186
      1264         -0.90322756        0.009186
      1265         -0.90323219        0.009186
      1266         -0.90323303        0.009186
      1267         -0.90323875        0.009186
      1268         -0.90324837        0.009186
      1269         -0.90324884        0.009186
      1270         -0.90324895        0.009186
      1271         -0.90324997        0.009186
      1272         -0.90325313        0.009186
      1273         -0.90325518        0.009186
      1274         -0.90325953        0.009186
      1275         -0.90326442        0.009186
      1276         -0.90326508        0.009186
      1277         -0.90326613        0.009186
      1278         -0.90326827        0.009186
      1279         -0.90327601        0.008505
      1280         -0.90327735        0.008505
      1281         -0.90327799        0.008505
      1282         -0.90328009        0.008505
      1283         -0.90328805        0.008505
      1284         -0.90328899        0.008505
      1285         -0.90328963        0.008505
      1286         -0.90329110        0.008505
      1287         -0.90329195        0.008505
      1288         -0.90329220        0.008505
      1289         -0.90329458        0.008505
      1290         -0.90329829        0.008505
      1291         -0.90330193        0.008505
      1292         -0.90330420        0.008505
      1293         -0.90330435        0.008505
      1294         -0.90331127        0.008505
      1295         -0.90331681        0.008505
      1296         -0.90332020        0.008505
      1297         -0.90332110        0.008505
      1298         -0.90332112        0.008505
      1299         -0.90332414        0.008505
      1300         -0.90332895        0.008505
      1301         -0.90334003        0.008505
      1302         -0.90334409        0.008505
      1303         -0.90334479        0.008505
      1304         -0.90334629        0.008505
      1305         -0.90334653        0.008505
      1306         -0.90335280        0.008505
      1307         -0.90335401        0.008505
      1308         -0.90335733        0.008505
      1309         -0.90336357        0.008505
      1310         -0.90336645        0.008505
      1311         -0.90336802        0.008505
      1312         -0.90336875        0.008505
      1313         -0.90336905        0.008505
      1314         -0.90337426        0.008505
      1315         -0.90337542        0.008505
      1316         -0.90337748        0.008505
      1317         -0.90338267        0.008505
      1318         -0.90338433        0.008505
      1319         -0.90338622        0.008505
      1320         -0.90338648        0.008505
      1321         -0.90338828        0.008505
      1322         -0.90339251        0.008505
      1323         -0.90339421        0.008505
      1324         -0.90340026        0.008505
      1325         -0.90340430        0.008505
      1326         -0.90340689        0.008505
      1327         -0.90340989        0.008505
      1328         -0.90341088        0.008505
      1329         -0.90341233        0.008505
      1330         -0.90341943        0.008505
      1331         -0.90342350        0.008505
      1332         -0.90342672        0.008505
      1333         -0.90342824        0.008505
      1334         -0.90343109        0.008505
      1335         -0.90343385        0.008505
      1336         -0.90343641        0.008505
      1337         -0.90344359        0.008505
      1338         -0.90344861        0.008505
      1339         -0.90344946        0.008505
      1340         -0.90345381        0.008505
      1341         -0.90346100        0.008505
      1342         -0.90346383        0.008505
      1343         -0.90346570        0.008505
      1344         -0.90346906        0.008505
      1345         -0.90347293        0.008505
      1346         -0.90347389        0.008505
      1347         -0.90347412        0.008505
      1348         -0.90347598        0.008505
      1349         -0.90347843        0.008505
      1350         -0.90348307        0.008505
      1351         -0.90348604        0.008505
      1352         -0.90348945        0.008505
      1353         -0.90349382        0.008505
      1354         -0.90349406        0.008505
      1355         -0.90349417        0.008505
      1356         -0.90349468        0.008505
      1357         -0.90349760        0.008505
      1358         -0.90349879        0.008505
      1359         -0.90349886        0.008505
      1360         -0.90350159        0.008505
      1361         -0.90350426        0.008505
      1362         -0.90351023        0.008505
      1363         -0.90351539        0.008505
      1364         -0.90352099        0.008505
      1365         -0.90352492        0.008505
      1366         -0.90352656        0.008505
      1367         -0.90352745        0.008505
      1368         -0.90353234        0.008505
      1369         -0.90353324        0.008505
      1370         -0.90353499        0.008505
      1371         -0.90354190        0.008505
      1372         -0.90354328        0.008505
      1373         -0.90354549        0.008505
      1374         -0.90354863        0.008505
      1375         -0.90354869        0.008505
      1376         -0.90355911        0.008505
      1377         -0.90356031        0.008505
      1378         -0.90356236        0.008505
      1379         -0.90356416        0.008505
      1380         -0.90357037        0.008505
      1381         -0.90357255        0.008505
      1382         -0.90358020        0.008505
      1383         -0.90358133        0.008505
      1384         -0.90358274        0.008505
      1385         -0.90358570        0.008505
      1386         -0.90358694        0.008505
      1387         -0.90358850        0.008505
      1388         -0.90359186        0.008505
      1389         -0.90359766        0.008505
      1390         -0.90359873        0.008505
      1391         -0.90360068        0.008505
      1392         -0.90360292        0.008505
      1393         -0.90360357        0.008505
      1394         -0.90360542        0.008505
      1395         -0.90360640        0.008505
      1396         -0.90360997        0.008505
      1397         -0.90361081        0.008505
      1398         -0.90361195        0.008505
      1399         -0.90361723        0.008505
      1400         -0.90361844        0.008505
      1401         -0.90362141        0.008505
      1402         -0.90362322        0.008505
      1403         -0.90362375        0.008505
      1404         -0.90362736        0.008505
      1405         -0.90363442        0.008505
      1406         -0.90363822        0.008505
      1407         -0.90364250        0.008505
      1408         -0.90364309        0.008505
      1409         -0.90364949        0.008505
      1410         -0.90364971        0.008505
      1411         -0.90365040        0.008505
      1412         -0.90365105        0.008505
      1413         -0.90365616        0.008505
      1414         -0.90365881        0.008505
      1415         -0.90366018        0.008505
      1416         -0.90366453        0.008505
      1417         -0.90367142        0.008505
      1418         -0.90367473        0.008505
      1419         -0.90367489        0.008505
      1420         -0.90367580        0.008505
      1421         -0.90368421        0.008505
      1422         -0.90368571        0.008505
      1423         -0.90368599        0.008505
      1424         -0.90368841        0.008505
      1425         -0.90368906        0.008505
      1426         -0.90369210        0.008505
      1427         -0.90369405        0.008505
      1428         -0.90370093        0.008505
      1429         -0.90370293        0.008505
      1430         -0.90370320        0.008505
      1431         -0.90370670        0.008505
      1432         -0.90370847        0.008505
      1433         -0.90370878        0.008505
      1434         -0.90371016        0.008505
      1435         -0.90371593        0.008505
      1436         -0.90371805        0.008505
      1437         -0.90371948        0.008505
      1438         -0.90372053        0.008505
      1439         -0.90372180        0.008505
      1440         -0.90372310        0.008505
      1441         -0.90372398        0.008505
      1442         -0.90372675        0.008505
      1443         -0.90373430        0.008505
      1444         -0.90373623        0.008505
      1445         -0.90374143        0.008505
      1446         -0.90374718        0.008505
      1447         -0.90375197        0.008505
      1448         -0.90375432        0.008505
      1449         -0.90375436        0.008505
      1450         -0.90375512        0.008505
      1451         -0.90376054        0.008505
      1452         -0.90376494        0.008505
      1453         -0.90376498        0.008505
      1454         -0.90376637        0.008505
      1455         -0.90377094        0.008505
      1456         -0.90377607        0.008505
      1457         -0.90377939        0.008505
      1458         -0.90378066        0.008505
      1459         -0.90378130        0.008505
      1460         -0.90378527        0.008505
      1461         -0.90379157        0.008505
      1462         -0.90379359        0.008505
      1463         -0.90379661        0.008505
      1464         -0.90379881        0.008505
      1465         -0.90379908        0.008505
      1466         -0.90380156        0.008505
      1467         -0.90380231        0.008505
      1468         -0.90380367        0.008505
      1469         -0.90380685        0.008505
      1470         -0.90381167        0.008505
      1471         -0.90381883        0.007875
      1472         -0.90381949        0.007875
      1473         -0.90382178        0.007875
      1474         -0.90382318        0.007875
      1475         -0.90382356        0.007875
      1476         -0.90382471        0.007875
      1477         -0.90382496        0.007875
      1478         -0.90382853        0.007875
      1479         -0.90382942        0.007875
      1480         -0.90383158        0.007875
      1481         -0.90383238        0.007875
      1482         -0.90383593        0.007875
      1483         -0.90384158        0.007875
      1484         -0.90384374        0.007875
      1485         -0.90384674        0.007875
      1486         -0.90385006        0.007875
      1487         -0.90385359        0.007875
      1488         -0.90385408        0.007875
      1489         -0.90386007        0.007875
      1490         -0.90386009        0.007875
      1491         -0.90386152        0.007875
      1492         -0.90386332        0.007875
      1493         -0.90386381        0.007875
      1494         -0.90386386        0.007875
      1495         -0.90386397        0.007875
      1496         -0.90386704        0.007875
      1497         -0.90386986        0.007875
      1498         -0.90387093        0.007875
      1499         -0.90387097        0.007875
      1500         -0.90387124        0.007875
      1501         -0.90387228        0.007875
      1502         -0.90387369        0.007875
      1503         -0.90387477        0.007875
      1504         -0.90387783        0.007875
      1505         -0.90387843        0.007875
      1506         -0.90388033        0.007875
      1507         -0.90388110        0.007875
      1508         -0.90388590        0.007875
      1509         -0.90388707        0.007875
      1510         -0.90388859        0.007875
      1511         -0.90388866        0.007875
      1512         -0.90389182        0.007875
      1513         -0.90389202        0.007875
      1514         -0.90389225        0.007875
      1515         -0.90389657        0.007875
      1516         -0.90389946        0.007875
      1517         -0.90390172        0.007875
      1518         -0.90390572        0.007875
      1519         -0.90390643        0.007875
      1520         -0.90391095        0.007875
      1521         -0.90391353        0.007875
      1522         -0.90391431        0.007875
      1523         -0.90391482        0.007875
      1524         -0.90391662        0.007875
      1525         -0.90391991        0.007875
      1526         -0.90392645        0.007875
      1527         -0.90392751        0.007875
      1528         -0.90392784        0.007875
      1529         -0.90392801        0.007875
      1530         -0.90392813        0.007875
      1531         -0.90392904        0.007875
      1532         -0.90393141        0.007875
      1533         -0.90393188        0.007875
      1534         -0.90393766        0.007875
      1535         -0.90394336        0.007875
      1536         -0.90394387        0.007875
      1537         -0.90395001        0.007875
      1538         -0.90395134        0.007875
      1539         -0.90395221        0.007875
      1540         -0.90395442        0.007875
      1541         -0.90395606        0.007875
      1542         -0.90395606        0.007875
      1543         -0.90395842        0.007875
      1544         -0.90396269        0.007875
      1545         -0.90396482        0.007875
      1546         -0.90396983        0.007875
      1547         -0.90397101        0.007875
      1548         -0.90397226        0.007875
      1549         -0.90397552        0.007875
      1550         -0.90398038        0.007875
      1551         -0.90398168        0.007875
[...]
   1      -0.46632,   -0.77911     0.22094,    0.34122    -0.00880,    0.00105     0.05730,    0.02568    -0.00920,    0.01410     0.04646,   -0.02543
   2       0.38368,   -0.13250     0.85277,   -0.31144     0.03403,   -0.02840    -0.05764,   -0.01784     0.01393,    0.00407    -0.01363,   -0.00389
   3       0.02898,    0.04994     0.04593,    0.01315    -0.64318,   -0.49743     0.44958,    0.34179    -0.02606,   -0.06328     0.00516,   -0.02560
   4      -0.04453,    0.01561     0.02502,    0.03830    -0.52143,    0.21377    -0.74802,    0.32181    -0.01838,    0.05414     0.02580,    0.05903
   5       0.01824,    0.02355    -0.01320,   -0.02203    -0.06966,    0.00595    -0.01903,   -0.07370     0.37858,   -0.18827     0.33399,   -0.12835
   6       0.02192,    0.01987     0.03218,   -0.01569     0.01347,   -0.02813    -0.01638,   -0.02777     0.27472,   -0.33845     0.28614,   -0.32459
   7       0.01379,    0.02696     0.03390,   -0.02192     0.03430,   -0.06502     0.04410,    0.02159    -0.27564,    0.27042    -0.26226,    0.29566
   8      -0.02544,   -0.01406     0.01738,    0.02637    -0.04561,    0.00289    -0.00776,    0.00560     0.08230,   -0.42314    -0.09990,    0.41500
   9      -0.02430,    0.01638    -0.00515,   -0.02782     0.06694,   -0.02853    -0.00349,   -0.00615    -0.33194,   -0.22917     0.38641,    0.27124
  10       0.02851,    0.00354     0.02257,   -0.01677     0.01846,   -0.01592    -0.00476,   -0.03118    -0.33846,    0.10286     0.32524,   -0.09919

                     7                       8                       9                      10  
       ----------------------- ----------------------- ----------------------- -----------------------
   1       0.02005,   -0.04081     0.01716,    0.00254     0.00692,    0.01566    -0.00927,    0.02071
   2      -0.00588,    0.00676    -0.02340,    0.00267     0.04157,   -0.04446     0.00517,   -0.02519
   3      -0.00762,   -0.00823    -0.02304,   -0.02557    -0.03744,    0.00223    -0.00081,   -0.07894
   4       0.01001,   -0.01580     0.01192,    0.04580    -0.02003,    0.04738    -0.04689,   -0.01197
   5       0.45039,   -0.25476     0.49337,   -0.28479     0.26794,   -0.12996     0.00415,    0.00272
   6       0.00574,    0.01738    -0.17406,    0.22529    -0.36108,    0.44765    -0.28035,    0.35753
   7       0.31388,   -0.39959     0.13054,   -0.19272    -0.18675,    0.20743    -0.35722,    0.40799
   8      -0.17459,    0.46296     0.10176,   -0.23160     0.07289,   -0.26653    -0.13546,    0.47376
   9      -0.05302,   -0.03592    -0.20700,   -0.09452     0.46283,    0.30512    -0.39667,   -0.29474
  10      -0.46206,    0.09320     0.62881,   -0.15744    -0.31354,    0.11238    -0.00107,   -0.05218

                   WFN1 Final beta Correlation Function Analysis
                   ---------------------------------------------


 global array: Cb[1:10,1:10],  handle: -980 

                     1                       2                       3                       4                       5                       6  
       ----------------------- ----------------------- ----------------------- ----------------------- ----------------------- -----------------------
   1      -0.46632,   -0.77911     0.22094,    0.34122    -0.00880,    0.00105     0.05730,    0.02568    -0.00920,    0.01410     0.04646,   -0.02543
   2       0.38368,   -0.13250     0.85277,   -0.31144     0.03403,   -0.02840    -0.05764,   -0.01784     0.01393,    0.00407    -0.01363,   -0.00389
   3       0.02898,    0.04994     0.04593,    0.01315    -0.64318,   -0.49743     0.44958,    0.34179    -0.02606,   -0.06328     0.00516,   -0.02560
   4      -0.04453,    0.01561     0.02502,    0.03830    -0.52143,    0.21377    -0.74802,    0.32181    -0.01838,    0.05414     0.02580,    0.05903
   5       0.01824,    0.02355    -0.01320,   -0.02203    -0.06966,    0.00595    -0.01903,   -0.07370     0.37858,   -0.18827     0.33399,   -0.12835
   6       0.02192,    0.01987     0.03218,   -0.01569     0.01347,   -0.02813    -0.01638,   -0.02777     0.27472,   -0.33845     0.28614,   -0.32459
   7       0.01379,    0.02696     0.03390,   -0.02192     0.03430,   -0.06502     0.04410,    0.02159    -0.27564,    0.27042    -0.26226,    0.29566
   8      -0.02544,   -0.01406     0.01738,    0.02637    -0.04561,    0.00289    -0.00776,    0.00560     0.08230,   -0.42314    -0.09990,    0.41500
   9      -0.02430,    0.01638    -0.00515,   -0.02782     0.06694,   -0.02853    -0.00349,   -0.00615    -0.33194,   -0.22917     0.38641,    0.27124
  10       0.02851,    0.00354     0.02257,   -0.01677     0.01846,   -0.01592    -0.00476,   -0.03118    -0.33846,    0.10286     0.32524,   -0.09919

                     7                       8                       9                      10  
       ----------------------- ----------------------- ----------------------- -----------------------
   1       0.02005,   -0.04081     0.01716,    0.00254     0.00692,    0.01566    -0.00927,    0.02071
   2      -0.00588,    0.00676    -0.02340,    0.00267     0.04157,   -0.04446     0.00517,   -0.02519
   3      -0.00762,   -0.00823    -0.02304,   -0.02557    -0.03744,    0.00223    -0.00081,   -0.07894
   4       0.01001,   -0.01580     0.01192,    0.04580    -0.02003,    0.04738    -0.04689,   -0.01197
   5       0.45039,   -0.25476     0.49337,   -0.28479     0.26794,   -0.12996     0.00415,    0.00272
   6       0.00574,    0.01738    -0.17406,    0.22529    -0.36108,    0.44765    -0.28035,    0.35753
   7       0.31388,   -0.39959     0.13054,   -0.19272    -0.18675,    0.20743    -0.35722,    0.40799
   8      -0.17459,    0.46296     0.10176,   -0.23160     0.07289,   -0.26653    -0.13546,    0.47376
   9      -0.05302,   -0.03592    -0.20700,   -0.09452     0.46283,    0.30512    -0.39667,   -0.29474
  10      -0.46206,    0.09320     0.62881,   -0.15744    -0.31354,    0.11238    -0.00107,   -0.05218

                     WFN1 Final Alpha Natural Orbital Analysis
                     -----------------------------------------

 Vector    1  Occ=8.244667D-01  E= 0.000000D+00
              MO Center=  2.1D-06, -1.7D-05, -3.2D-05, r^2= 2.1D+00
   Bfn.  Coefficient  Atom+Function         Bfn.  Coefficient  Atom+Function  
  ----- ------------  ---------------      ----- ------------  ---------------
     2     -0.493095  1 H  s                  7     -0.493062  2 H  s          
     1     -0.222097  1 H  s                  6     -0.222111  2 H  s          

 Vector    2  Occ=1.647642D-01  E= 0.000000D+00
              MO Center= -7.3D-06,  6.7D-05,  3.4D-05, r^2= 2.4D+00
   Bfn.  Coefficient  Atom+Function         Bfn.  Coefficient  Atom+Function  
  ----- ------------  ---------------      ----- ------------  ---------------
     2     -0.537149  1 H  s                  7      0.537199  2 H  s          
     1     -0.289817  1 H  s                  6      0.289773  2 H  s          

 Vector    3  Occ=3.333516D-03  E= 0.000000D+00
              MO Center= -1.8D-04,  1.8D-03,  2.0D-03, r^2= 2.2D+00
   Bfn.  Coefficient  Atom+Function         Bfn.  Coefficient  Atom+Function  
  ----- ------------  ---------------      ----- ------------  ---------------
     1     -0.894934  1 H  s                  6     -0.894647  2 H  s          
     2      0.677046  1 H  s                  7      0.677029  2 H  s          
    10     -0.047088  2 H  pz                 5      0.039558  1 H  pz         

 Vector    4  Occ=2.226328D-03  E= 0.000000D+00
              MO Center=  4.0D-04,  7.5D-04, -6.9D-04, r^2= 2.9D+00
   Bfn.  Coefficient  Atom+Function         Bfn.  Coefficient  Atom+Function  
  ----- ------------  ---------------      ----- ------------  ---------------
     2      0.942973  1 H  s                  7     -0.942504  2 H  s          
     1     -0.920406  1 H  s                  6      0.920183  2 H  s          
     5     -0.038811  1 H  pz                10     -0.030108  2 H  pz         

 Vector    5  Occ=8.871324D-04  E= 0.000000D+00
              MO Center=  3.3D-04, -2.2D-05, -1.1D-04, r^2= 1.7D+00
   Bfn.  Coefficient  Atom+Function         Bfn.  Coefficient  Atom+Function  
  ----- ------------  ---------------      ----- ------------  ---------------
     3      0.704303  1 H  px                 8      0.702584  2 H  px         
     9     -0.071497  2 H  py                 4     -0.062249  1 H  py         
    10      0.033775  2 H  pz         

 Vector    6  Occ=8.756452D-04  E= 0.000000D+00
              MO Center= -7.2D-05, -1.7D-03, -4.3D-04, r^2= 1.7D+00
   Bfn.  Coefficient  Atom+Function         Bfn.  Coefficient  Atom+Function  
  ----- ------------  ---------------      ----- ------------  ---------------
     9      0.704823  2 H  py                 4      0.700674  1 H  py         
     3      0.095448  1 H  px                 8      0.039400  2 H  px         
    10     -0.032764  2 H  pz                 6     -0.026188  2 H  s          
     7      0.025467  2 H  s          

 Vector    7  Occ=9.171947D-04  E= 0.000000D+00
              MO Center= -7.0D-05, -6.6D-04,  4.3D-04, r^2= 1.7D+00
   Bfn.  Coefficient  Atom+Function         Bfn.  Coefficient  Atom+Function  
  ----- ------------  ---------------      ----- ------------  ---------------
     4      0.703597  1 H  py                 9     -0.703489  2 H  py         
     8     -0.071667  2 H  px                 3      0.062495  1 H  px         
     5      0.030134  1 H  pz         

 Vector    8  Occ=8.449072D-04  E= 0.000000D+00
              MO Center= -6.8D-04, -3.9D-07,  1.7D-05, r^2= 1.7D+00
   Bfn.  Coefficient  Atom+Function         Bfn.  Coefficient  Atom+Function  
  ----- ------------  ---------------      ----- ------------  ---------------
     8      0.705230  2 H  px                 3     -0.700524  1 H  px         
     4      0.095464  1 H  py                 9     -0.038043  2 H  py         
    10      0.034845  2 H  pz         

 Vector    9  Occ=8.590262D-04  E= 0.000000D+00
              MO Center=  2.1D-05,  5.5D-06, -1.9D-03, r^2= 1.7D+00
   Bfn.  Coefficient  Atom+Function         Bfn.  Coefficient  Atom+Function  
  ----- ------------  ---------------      ----- ------------  ---------------
     5     -0.706827  1 H  pz                10      0.704536  2 H  pz         
     7      0.093749  2 H  s                  6     -0.087918  2 H  s          
     2      0.081790  1 H  s                  1     -0.076323  1 H  s          
     8     -0.034327  2 H  px                 4      0.030056  1 H  py         

 Vector   10  Occ=8.253242D-04  E= 0.000000D+00
              MO Center=  2.6D-04, -2.6D-04,  6.6D-04, r^2= 1.7D+00
   Bfn.  Coefficient  Atom+Function         Bfn.  Coefficient  Atom+Function  
  ----- ------------  ---------------      ----- ------------  ---------------
     5     -0.706810  1 H  pz                10     -0.707375  2 H  pz         
     2     -0.121886  1 H  s                  7      0.114453  2 H  s          
     1      0.090657  1 H  s                  6     -0.080896  2 H  s          
     9     -0.035769  2 H  py                 8      0.031552  2 H  px         


                     WFN1 Final Beta Natural Orbital Analysis
                     ----------------------------------------

 Vector    1  Occ=8.244667D-01  E= 0.000000D+00
              MO Center=  2.1D-06, -1.7D-05, -3.2D-05, r^2= 2.1D+00
   Bfn.  Coefficient  Atom+Function         Bfn.  Coefficient  Atom+Function  
  ----- ------------  ---------------      ----- ------------  ---------------
     2     -0.493095  1 H  s                  7     -0.493062  2 H  s          
     1     -0.222097  1 H  s                  6     -0.222111  2 H  s          

 Vector    2  Occ=1.647642D-01  E= 0.000000D+00
              MO Center= -7.3D-06,  6.7D-05,  3.4D-05, r^2= 2.4D+00
   Bfn.  Coefficient  Atom+Function         Bfn.  Coefficient  Atom+Function  
  ----- ------------  ---------------      ----- ------------  ---------------
     2     -0.537149  1 H  s                  7      0.537199  2 H  s          
     1     -0.289817  1 H  s                  6      0.289773  2 H  s          

 Vector    3  Occ=3.333516D-03  E= 0.000000D+00
              MO Center= -1.8D-04,  1.8D-03,  2.0D-03, r^2= 2.2D+00
   Bfn.  Coefficient  Atom+Function         Bfn.  Coefficient  Atom+Function  
  ----- ------------  ---------------      ----- ------------  ---------------
     1     -0.894934  1 H  s                  6     -0.894647  2 H  s          
     2      0.677046  1 H  s                  7      0.677029  2 H  s          
    10     -0.047088  2 H  pz                 5      0.039558  1 H  pz         

 Vector    4  Occ=2.226328D-03  E= 0.000000D+00
              MO Center=  4.0D-04,  7.5D-04, -6.9D-04, r^2= 2.9D+00
   Bfn.  Coefficient  Atom+Function         Bfn.  Coefficient  Atom+Function  
  ----- ------------  ---------------      ----- ------------  ---------------
     2      0.942973  1 H  s                  7     -0.942504  2 H  s          
     1     -0.920406  1 H  s                  6      0.920183  2 H  s          
     5     -0.038811  1 H  pz                10     -0.030108  2 H  pz         

 Vector    5  Occ=8.871324D-04  E= 0.000000D+00
              MO Center=  3.3D-04, -2.2D-05, -1.1D-04, r^2= 1.7D+00
   Bfn.  Coefficient  Atom+Function         Bfn.  Coefficient  Atom+Function  
  ----- ------------  ---------------      ----- ------------  ---------------
     3      0.704303  1 H  px                 8      0.702584  2 H  px         
     9     -0.071497  2 H  py                 4     -0.062249  1 H  py         
    10      0.033775  2 H  pz         

 Vector    6  Occ=8.756452D-04  E= 0.000000D+00
              MO Center= -7.2D-05, -1.7D-03, -4.3D-04, r^2= 1.7D+00
   Bfn.  Coefficient  Atom+Function         Bfn.  Coefficient  Atom+Function  
  ----- ------------  ---------------      ----- ------------  ---------------
     9      0.704823  2 H  py                 4      0.700674  1 H  py         
     3      0.095448  1 H  px                 8      0.039400  2 H  px         
    10     -0.032764  2 H  pz                 6     -0.026188  2 H  s          
     7      0.025467  2 H  s          

 Vector    7  Occ=9.171947D-04  E= 0.000000D+00
              MO Center= -7.0D-05, -6.6D-04,  4.3D-04, r^2= 1.7D+00
   Bfn.  Coefficient  Atom+Function         Bfn.  Coefficient  Atom+Function  
  ----- ------------  ---------------      ----- ------------  ---------------
     4      0.703597  1 H  py                 9     -0.703489  2 H  py         
     8     -0.071667  2 H  px                 3      0.062495  1 H  px         
     5      0.030134  1 H  pz         

 Vector    8  Occ=8.449072D-04  E= 0.000000D+00
              MO Center= -6.8D-04, -3.9D-07,  1.7D-05, r^2= 1.7D+00
   Bfn.  Coefficient  Atom+Function         Bfn.  Coefficient  Atom+Function  
  ----- ------------  ---------------      ----- ------------  ---------------
     8      0.705230  2 H  px                 3     -0.700524  1 H  px         
     4      0.095464  1 H  py                 9     -0.038043  2 H  py         
    10      0.034845  2 H  pz         

 Vector    9  Occ=8.590262D-04  E= 0.000000D+00
              MO Center=  2.1D-05,  5.5D-06, -1.9D-03, r^2= 1.7D+00
   Bfn.  Coefficient  Atom+Function         Bfn.  Coefficient  Atom+Function  
  ----- ------------  ---------------      ----- ------------  ---------------
     5     -0.706827  1 H  pz                10      0.704536  2 H  pz         
     7      0.093749  2 H  s                  6     -0.087918  2 H  s          
     2      0.081790  1 H  s                  1     -0.076323  1 H  s          
     8     -0.034327  2 H  px                 4      0.030056  1 H  py         

 Vector   10  Occ=8.253242D-04  E= 0.000000D+00
              MO Center=  2.6D-04, -2.6D-04,  6.6D-04, r^2= 1.7D+00
   Bfn.  Coefficient  Atom+Function         Bfn.  Coefficient  Atom+Function  
  ----- ------------  ---------------      ----- ------------  ---------------
     5     -0.706810  1 H  pz                10     -0.707375  2 H  pz         
     2     -0.121886  1 H  s                  7      0.114453  2 H  s          
     1      0.090657  1 H  s                  6     -0.080896  2 H  s          
     9     -0.035769  2 H  py                 8      0.031552  2 H  px         


 Task  times  cpu:     2882.4s     wall:     3352.1s
 Summary of allocated global arrays
-----------------------------------
  No active global arrays



                         GA Statistics for process    0
                         ------------------------------

       create   destroy   get      put      acc     scatter   gather  read&inc
calls:   44       44     1.04e+09 4.46e+05 5.93e+05    0        0       11     
number of processes/call 1.00e+00 1.00e+00 1.00e+00 0.00e+00 0.00e+00
bytes total:             8.33e+11 4.75e+08 5.93e+08 0.00e+00 0.00e+00 8.80e+01
bytes remote:            0.00e+00 0.00e+00 0.00e+00 0.00e+00 0.00e+00 0.00e+00
Max memory consumed for GA by this process: 268000 bytes
MA_summarize_allocated_blocks: starting scan ...
MA_summarize_allocated_blocks: scan completed: 0 heap blocks, 0 stack blocks
MA usage statistics:

	allocation statistics:
					      heap	     stack
					      ----	     -----
	current number of blocks	         0	         0
	maximum number of blocks	        19	        17
	current total bytes		         0	         0
	maximum total bytes		   3205432	  22508664
	maximum total K-bytes		      3206	     22509
	maximum total M-bytes		         4	        23


                                NWChem Input Module
                                -------------------





                                     CITATION
                                     --------
                Please cite the following reference when publishing
                           results obtained with NWChem:

                 M. Valiev, E.J. Bylaska, N. Govind, K. Kowalski,
              T.P. Straatsma, H.J.J. van Dam, D. Wang, J. Nieplocha,
                        E. Apra, T.L. Windus, W.A. de Jong
                 "NWChem: a comprehensive and scalable open-source
                  solution for large scale molecular simulations"
                      Comput. Phys. Commun. 181, 1477 (2010)
                           doi:10.1016/j.cpc.2010.04.018

                                      AUTHORS
                                      -------
          E. Apra, E. J. Bylaska, W. A. de Jong, N. Govind, K. Kowalski,
       T. P. Straatsma, M. Valiev, H. J. J. van Dam, D. Wang, T. L. Windus,
        J. Hammond, J. Autschbach, K. Bhaskaran-Nair, J. Brabec, K. Lopata,
    S. A. Fischer, S. Krishnamoorthy, M. Jacquelin, W. Ma, M. Klemm, O. Villa,
      Y. Chen, V. Anisimov, F. Aquino, S. Hirata, M. T. Hackler, V. Konjkov,
      T. Risthaus, M. Malagoli, A. Marenich, A. Otero-de-la-Roza, J. Mullin,
        P. Nichols, R. Peverati, J. Pittner, Y. Zhao, P.-D. Fan, A. Fonari,
       M. Williamson, R. J. Harrison, J. R. Rehr, M. Dupuis, D. Silverstein,
    D. M. A. Smith, J. Nieplocha, V. Tipparaju, M. Krishnan, B. E. Van Kuiken,
        A. Vazquez-Mayagoitia, L. Jensen, M. Swart, Q. Wu, T. Van Voorhis,
     A. A. Auer, M. Nooijen, L. D. Crosby, E. Brown, G. Cisneros, G. I. Fann,
   H. Fruchtl, J. Garza, K. Hirao, R. A. Kendall, J. A. Nichols, K. Tsemekhman,
    K. Wolinski, J. Anchell, D. E. Bernholdt, P. Borowski, T. Clark, D. Clerc,
   H. Dachsel, M. J. O. Deegan, K. Dyall, D. Elwood, E. Glendening, M. Gutowski,
   A. C. Hess, J. Jaffe, B. G. Johnson, J. Ju, R. Kobayashi, R. Kutteh, Z. Lin,
   R. Littlefield, X. Long, B. Meng, T. Nakajima, S. Niu, L. Pollack, M. Rosing,
   K. Glaesemann, G. Sandrone, M. Stave, H. Taylor, G. Thomas, J. H. van Lenthe,
                               A. T. Wong, Z. Zhang.

 Total times  cpu:     2882.4s     wall:     3352.1s
