 argument  1 = input-wf.nw



============================== echo of input deck ==============================
echo
start wfn1_dat
geometry units au noautoz
  H 0 0 -1.59434600000000000000
  H 0 0  1.59434600000000000000
  symmetry cs
end
basis
  H library 6-31g**
end
set wfn1:input_vectors "atomic"
set wfn1:solver "monte-carlo"
set wfn1:print_error F
set wfn1:t_initial 0.1
#set wfn1:corr_expr "wfn1_mx"
set wfn1:corr_expr "wfn1c"
set wfn1:t_bath 0.0
set wfn1:maxit  20000
task wfn1 energy
================================================================================


                                         
                                         


              Northwest Computational Chemistry Package (NWChem) 6.8
              ------------------------------------------------------


                    Environmental Molecular Sciences Laboratory
                       Pacific Northwest National Laboratory
                                Richland, WA 99352

                              Copyright (c) 1994-2015
                       Pacific Northwest National Laboratory
                            Battelle Memorial Institute

             NWChem is an open-source computational chemistry package
                        distributed under the terms of the
                      Educational Community License (ECL) 2.0
             A copy of the license is included with this distribution
                              in the LICENSE.TXT file

                                  ACKNOWLEDGMENT
                                  --------------

            This software and its documentation were developed at the
            EMSL at Pacific Northwest National Laboratory, a multiprogram
            national laboratory, operated for the U.S. Department of Energy
            by Battelle under Contract Number DE-AC05-76RL01830. Support
            for this work was provided by the Department of Energy Office
            of Biological and Environmental Research, Office of Basic
            Energy Sciences, and the Office of Advanced Scientific Computing.


           Job information
           ---------------

    hostname        = erato
    program         = ../../../bin/LINUX64/nwchem
    date            = Mon Mar  1 15:30:19 2021

    compiled        = Sun_Feb_28_18:02:42_2021
    source          = /home/hvandam/nwchem-1-wfn1
    nwchem branch   = Development
    nwchem revision = nwchem_on_git-124-gad72d19fff205e319ffbbf2bca37a04ded6ad57b
    ga revision     = nwchem_on_git-124-gad72d19
    use scalapack   = F
    input           = input-wf.nw
    prefix          = wfn1_dat.
    data base       = ./wfn1_dat.db
    status          = startup
    nproc           =        1
    time left       =     -1s



           Memory information
           ------------------

    heap     =   13107198 doubles =    100.0 Mbytes
    stack    =   13107195 doubles =    100.0 Mbytes
    global   =   26214400 doubles =    200.0 Mbytes (distinct from heap & stack)
    total    =   52428793 doubles =    400.0 Mbytes
    verify   = yes
    hardfail = no 


           Directory information
           ---------------------

  0 permanent = .
  0 scratch   = .




                                NWChem Input Module
                                -------------------


 Turning off AUTOSYM since
 SYMMETRY directive was detected!



                             Geometry "geometry" -> ""
                             -------------------------

 Output coordinates in a.u. (scale by  1.000000000 to convert to a.u.)

  No.       Tag          Charge          X              Y              Z
 ---- ---------------- ---------- -------------- -------------- --------------
    1 H                    1.0000     0.00000000     0.00000000    -1.59434600
    2 H                    1.0000     0.00000000     0.00000000     1.59434600

      Atomic Mass 
      ----------- 

      H                  1.007825


 Effective nuclear repulsion energy (a.u.)       0.3136082130

            Nuclear Dipole moment (a.u.) 
            ----------------------------
        X                 Y               Z
 ---------------- ---------------- ----------------
     0.0000000000     0.0000000000     0.0000000000

      Symmetry information
      --------------------

 Group name             Cs        
 Group number              2
 Group order               2
 No. of unique centers     1

      Symmetry unique atoms

     1


            XYZ format geometry
            -------------------
     2
 geometry
 H                     0.00000000     0.00000000    -0.84369163
 H                     0.00000000     0.00000000     0.84369163

                      Basis "ao basis" -> "" (cartesian)
                      -----
  H (Hydrogen)
  ------------
            Exponent  Coefficients 
       -------------- ---------------------------------------------------------
  1 S  1.87311370E+01  0.033495
  1 S  2.82539370E+00  0.234727
  1 S  6.40121700E-01  0.813757

  2 S  1.61277800E-01  1.000000

  3 P  1.10000000E+00  1.000000



 Summary of "ao basis" -> "" (cartesian)
 ------------------------------------------------------------------------------
       Tag                 Description            Shells   Functions and Types
 ---------------- ------------------------------  ------  ---------------------
 H                          6-31g**                  3        5   2s1p



                                NWChem WFN1 Module
                                ------------------



          No. of electrons :     2
           Alpha electrons :     1
            Beta electrons :     1
          Charge           :     0
          Spin multiplicity:     1

 HvD: wfn1_inpdft
 HvD: nquad_task =                     1
 HvD: iangquad   =                     0
 HvD: gridtype   = user      
 HvD: leb        =  T
 HvD: radgrid    = murakn    
 HvD: trunc_neigh=  T
 HvD: lssw       =  T
 HvD: whichssw   = erf1    
 HvD: mxnrad     =                     0
 HvD: mxnang     =                     0
 HVD: wfn1: movecs_in  = atomic                                                                                                                                                                                                                                                          
 HVD: wfn1: movecs_out = ./wfn1_dat.movecs                                                                                                                                                                                                                                               

      Superposition of Atomic Density Guess
      -------------------------------------

 Sum of atomic energies:          -0.99646508

      Non-variational initial energy
      ------------------------------

 Total energy =      -0.709870
 1-e energy   =      -1.620773
 2-e energy   =       0.597295
 HOMO         =      -0.306751
 LUMO         =      -0.061905

 iteration              energy           error
 ---------              ------           -----
         0         -0.95662765        0.200000
         1         -0.95953970        0.200000
         2         -0.96095157        0.200000
         3         -0.96099181        0.200000
         4         -0.96282940        0.200000
         5         -0.96309646        0.200000
         6         -0.96416191        0.200000
         7         -0.96454080        0.200000
         8         -0.96511493        0.200000
         9         -0.96543812        0.200000
        10         -0.96549660        0.185175
        11         -0.96615701        0.158740
        12         -0.96627432        0.158740
        13         -0.96670045        0.158740
        14         -0.96682096        0.158740
        15         -0.96715236        0.158740
        16         -0.96754313        0.158740
        17         -0.96759416        0.158740
        18         -0.96775946        0.146973
        19         -0.96821972        0.146973
        20         -0.96828994        0.136079
        21         -0.96843041        0.125992
        22         -0.96875469        0.116653
        23         -0.96875547        0.116653
        24         -0.96886868        0.116653
        25         -0.96897683        0.116653
        26         -0.96922839        0.108006
        27         -0.96933159        0.108006
        28         -0.96945724        0.108006
        29         -0.96965285        0.108006
        30         -0.96967280        0.108006
        31         -0.96969599        0.108006
        32         -0.96978178        0.108006
        33         -0.96980974        0.100000
        34         -0.96995328        0.100000
        35         -0.97002593        0.068040
        36         -0.97006670        0.068040
        37         -0.97016775        0.062996
        38         -0.97037677        0.062996
        39         -0.97038526        0.062996
        40         -0.97061120        0.062996
        41         -0.97061556        0.058326
        42         -0.97074769        0.058326
        43         -0.97082979        0.058326
        44         -0.97088038        0.058326
        45         -0.97090553        0.058326
        46         -0.97107919        0.058326
        47         -0.97113401        0.058326
        48         -0.97115018        0.054003
        49         -0.97120164        0.021431
        50         -0.97123758        0.019843
        51         -0.97125930        0.017010
        52         -0.97126083        0.017010
        53         -0.97129932        0.017010
        54         -0.97130581        0.015749
        55         -0.97136041        0.014582
        56         -0.97136327        0.013501
        57         -0.97137636        0.011573
        58         -0.97141622        0.011573
        59         -0.97142029        0.007875
        60         -0.97146542        0.007875
        61         -0.97150178        0.004252
        62         -0.97151789        0.004252
        63         -0.97152200        0.002893
        64         -0.97152826        0.002679
        65         -0.97153291        0.002480
        66         -0.97153418        0.001563
        67         -0.97154222        0.001447
        68         -0.97154920        0.001240
        69         -0.97156707        0.001063
        70         -0.97156888        0.000984
        71         -0.97156992        0.000670
        72         -0.97157024        0.000670
        73         -0.97157923        0.000574
        74         -0.97159203        0.000532
        75         -0.97159408        0.000456
        76         -0.97159837        0.000335
        77         -0.97160647        0.000310
        78         -0.97160920        0.000266
        79         -0.97161657        0.000084
        80         -0.97161798        0.000078
        81         -0.97161834        0.000057
        82         -0.97161976        0.000057
        83         -0.97162015        0.000053
        84         -0.97162249        0.000033
        85         -0.97162250        0.000026
        86         -0.97162514        0.000023
        87         -0.97162517        0.000021
        88         -0.97162567        0.000021
        89         -0.97162661        0.000021
        90         -0.97162718        0.000019
        91         -0.97162776        0.000019
        92         -0.97162914        0.000018
        93         -0.97162942        0.000015
        94         -0.97162977        0.000010
        95         -0.97163185        0.000010
        96         -0.97163199        0.000009
        97         -0.97163312        0.000004
        98         -0.97163327        0.000002
        99         -0.97163387        0.000002
       100         -0.97163417        0.000002
       101         -0.97163598        0.000001
       102         -0.97163626        0.000001
       103         -0.97163640        0.000001

 Reached Convergence

 WFN1                     :
 --------------------------
 Total WFN1 energy  =          -0.9716364043
 1-Electron energy  =          -1.7109315733
 2-Electron energy  =           0.4550263774
 Correlation energy =          -0.0293394214
 DFT XC energy      =           0.0000000000
 Entropy energy     =           0.0000000000
 Nuclear energy     =           0.3136082130

 conventional Hartree-Fock:
 --------------------------
 Total SCF energy  =          -0.9467397638
 2-Electron energy =           0.4799230180

                WFN1 Final Natural orbital energies and occupations
                ---------------------------------------------------

              Alpha       Beta            Alpha       Beta  
            --------    --------        --------    --------
       1      0.0000      0.0000          0.9550      0.9550
       2      0.0000      0.0000          0.0419      0.0419
       3      0.0000      0.0000          0.0009      0.0009
       4      0.0000      0.0000          0.0010      0.0010
       5      0.0000      0.0000          0.0005      0.0005
       6      0.0000      0.0000          0.0002      0.0002
       7      0.0000      0.0000          0.0000      0.0000
       8      0.0000      0.0000          0.0000      0.0000
       9      0.0000      0.0000          0.0001      0.0001
      10      0.0000      0.0000          0.0004      0.0004

             WFN1 Final Correlation function energies and occupations
             --------------------------------------------------------

              Alpha       Beta            Alpha       Beta  
            --------    --------        --------    --------
       1      0.0000      0.0000          1.0000      1.0000
       2      0.0000      0.0000          0.0000      0.0000
       3      0.0000      0.0000          0.0000      0.0000
       4      0.0000      0.0000          0.0000      0.0000
       5      0.0000      0.0000          0.0000      0.0000
       6      0.0000      0.0000          0.0000      0.0000
       7      0.0000      0.0000          0.0000      0.0000
       8      0.0000      0.0000          0.0000      0.0000
       9      0.0000      0.0000          0.0000      0.0000
      10      0.0000      0.0000          0.0000      0.0000

                WFN1 Final alpha-alpha 2-matrix occupation numbers
                --------------------------------------------------


 global array: g_momo1[1:10,1:10],  handle: -990 

            1           2           3           4           5           6  
       ----------- ----------- ----------- ----------- ----------- -----------
   1       0.00000     0.00000     0.00000     0.00000    -0.00000     0.00000
   2       0.00000    -0.00000     0.00000     0.00000     0.00000     0.00000
   3       0.00000    -0.00000     0.00000     0.00000     0.00000    -0.00000
   4       0.00000    -0.00000     0.00000     0.00000     0.00000     0.00000
   5       0.00000     0.00000     0.00000     0.00000    -0.00000     0.00000
   6       0.00000    -0.00000     0.00000     0.00000    -0.00000     0.00000
   7      -0.00000     0.00000     0.00000     0.00000     0.00000     0.00000
   8       0.00000    -0.00000     0.00000     0.00000    -0.00000    -0.00000
   9       0.00000    -0.00000     0.00000     0.00000     0.00000    -0.00000
  10       0.00000    -0.00000     0.00000     0.00000    -0.00000     0.00000

            7           8           9          10  
       ----------- ----------- ----------- -----------
   1      -0.00000     0.00000     0.00000     0.00000
   2       0.00000    -0.00000     0.00000    -0.00000
   3       0.00000     0.00000    -0.00000     0.00000
   4      -0.00000    -0.00000     0.00000     0.00000
   5       0.00000    -0.00000     0.00000     0.00000
   6      -0.00000     0.00000    -0.00000     0.00000
   7      -0.00000    -0.00000     0.00000     0.00000
   8      -0.00000    -0.00000     0.00000    -0.00000
   9       0.00000     0.00000     0.00000     0.00000
  10       0.00000     0.00000     0.00000     0.00000

                 WFN1 Final beta-beta 2-matrix occupation numbers
                 ------------------------------------------------


 global array: g_momo2[1:10,1:10],  handle: -989 

            1           2           3           4           5           6  
       ----------- ----------- ----------- ----------- ----------- -----------
   1       0.00000     0.00000     0.00000     0.00000    -0.00000     0.00000
   2       0.00000    -0.00000     0.00000     0.00000     0.00000     0.00000
   3       0.00000    -0.00000     0.00000     0.00000     0.00000    -0.00000
   4       0.00000    -0.00000     0.00000     0.00000     0.00000     0.00000
   5       0.00000     0.00000     0.00000     0.00000    -0.00000     0.00000
   6       0.00000    -0.00000     0.00000     0.00000    -0.00000     0.00000
   7      -0.00000     0.00000     0.00000     0.00000     0.00000     0.00000
   8       0.00000    -0.00000     0.00000     0.00000    -0.00000    -0.00000
   9       0.00000    -0.00000     0.00000     0.00000     0.00000    -0.00000
  10       0.00000    -0.00000     0.00000     0.00000    -0.00000     0.00000

            7           8           9          10  
       ----------- ----------- ----------- -----------
   1      -0.00000     0.00000     0.00000     0.00000
   2       0.00000    -0.00000     0.00000    -0.00000
   3       0.00000     0.00000    -0.00000     0.00000
   4      -0.00000    -0.00000     0.00000     0.00000
   5       0.00000    -0.00000     0.00000     0.00000
   6      -0.00000     0.00000    -0.00000     0.00000
   7      -0.00000    -0.00000     0.00000     0.00000
   8      -0.00000    -0.00000     0.00000    -0.00000
   9       0.00000     0.00000     0.00000     0.00000
  10       0.00000     0.00000     0.00000     0.00000

                  WFN1 Final alpha Correlation Function Analysis
                  ----------------------------------------------


 global array: Ca[1:10,1:10],  handle: -977 

                     1                       2                       3                       4                       5                       6  
       ----------------------- ----------------------- ----------------------- ----------------------- ----------------------- -----------------------
   1      -0.60961,    0.76382     0.12706,   -0.15334     0.02978,    0.03438     0.02265,   -0.02310    -0.02130,    0.01657     0.00411,   -0.01291
   2      -0.19478,    0.06273    -0.93413,    0.27696    -0.03013,   -0.05191    -0.01541,    0.01648     0.03043,   -0.00219    -0.01492,    0.00417
   3       0.01706,    0.02454    -0.02016,   -0.04806    -0.47930,    0.61483    -0.37947,    0.48953     0.00473,   -0.01814    -0.03230,   -0.01162
   4       0.02453,    0.02021    -0.00444,   -0.04962    -0.60741,   -0.12204     0.76255,    0.14707    -0.02745,    0.05109     0.00279,    0.02546
   5      -0.01911,   -0.01058     0.03651,    0.01460     0.01846,   -0.01632     0.01970,    0.02195     0.63894,    0.40123    -0.55268,   -0.34310
   6       0.01055,    0.00817    -0.02072,    0.00798     0.00182,   -0.02141    -0.02574,    0.03451     0.25219,   -0.24811     0.26275,   -0.33689
   7      -0.00000,   -0.00000     0.00645,   -0.00386    -0.00146,    0.01315    -0.04730,   -0.00175    -0.21901,    0.25943    -0.23999,    0.31094
   8      -0.00000,   -0.00000    -0.00684,    0.02567     0.00525,   -0.01063     0.00232,    0.06184     0.22333,    0.18552     0.24613,    0.23488
   9      -0.00489,    0.01022     0.01825,   -0.04372    -0.02370,    0.02196     0.02241,    0.03780     0.25704,   -0.17025     0.29817,   -0.14308
  10      -0.01913,    0.00632     0.02704,   -0.00782     0.01622,    0.00693    -0.01897,    0.02470     0.01502,   -0.07340     0.06607,   -0.09086

                     7                       8                       9                      10  
       ----------------------- ----------------------- ----------------------- -----------------------
   1       0.00345,   -0.01867    -0.01414,   -0.00311     0.00277,   -0.01161     0.00987,    0.02175
   2      -0.03518,    0.01872     0.01496,    0.02376    -0.02117,   -0.00844    -0.00207,   -0.02524
   3       0.02399,    0.00603    -0.02555,    0.04119     0.01631,    0.01125    -0.00553,    0.00959
   4       0.04000,   -0.00880     0.04163,   -0.01226     0.02146,   -0.00023     0.03461,   -0.01768
   5      -0.01441,    0.05025    -0.00222,   -0.00081    -0.00130,    0.02513     0.02622,   -0.00467
   6       0.31053,   -0.34068     0.29509,   -0.32289     0.35889,   -0.39489     0.02756,    0.00234
   7      -0.26353,    0.37155     0.26053,   -0.33417     0.35766,   -0.45945     0.02300,   -0.03740
   8      -0.37004,   -0.32053    -0.45304,   -0.38241     0.35436,    0.27937     0.02135,   -0.00704
   9      -0.48867,    0.27793     0.42717,   -0.27641    -0.33489,    0.19305    -0.21450,    0.14096
  10      -0.03695,    0.12633     0.06022,   -0.09950    -0.05834,    0.13290     0.35239,   -0.89621

                   WFN1 Final beta Correlation Function Analysis
                   ---------------------------------------------


 global array: Cb[1:10,1:10],  handle: -976 

                     1                       2                       3                       4                       5                       6  
       ----------------------- ----------------------- ----------------------- ----------------------- ----------------------- -----------------------
   1      -0.60961,    0.76382     0.12706,   -0.15334     0.02978,    0.03438     0.02265,   -0.02310    -0.02130,    0.01657     0.00411,   -0.01291
   2      -0.19478,    0.06273    -0.93413,    0.27696    -0.03013,   -0.05191    -0.01541,    0.01648     0.03043,   -0.00219    -0.01492,    0.00417
   3       0.01706,    0.02454    -0.02016,   -0.04806    -0.47930,    0.61483    -0.37947,    0.48953     0.00473,   -0.01814    -0.03230,   -0.01162
   4       0.02453,    0.02021    -0.00444,   -0.04962    -0.60741,   -0.12204     0.76255,    0.14707    -0.02745,    0.05109     0.00279,    0.02546
   5      -0.01911,   -0.01058     0.03651,    0.01460     0.01846,   -0.01632     0.01970,    0.02195     0.63894,    0.40123    -0.55268,   -0.34310
   6       0.01055,    0.00817    -0.02072,    0.00798     0.00182,   -0.02141    -0.02574,    0.03451     0.25219,   -0.24811     0.26275,   -0.33689
   7      -0.00000,   -0.00000     0.00645,   -0.00386    -0.00146,    0.01315    -0.04730,   -0.00175    -0.21901,    0.25943    -0.23999,    0.31094
   8      -0.00000,   -0.00000    -0.00684,    0.02567     0.00525,   -0.01063     0.00232,    0.06184     0.22333,    0.18552     0.24613,    0.23488
   9      -0.00489,    0.01022     0.01825,   -0.04372    -0.02370,    0.02196     0.02241,    0.03780     0.25704,   -0.17025     0.29817,   -0.14308
  10      -0.01913,    0.00632     0.02704,   -0.00782     0.01622,    0.00693    -0.01897,    0.02470     0.01502,   -0.07340     0.06607,   -0.09086

                     7                       8                       9                      10  
       ----------------------- ----------------------- ----------------------- -----------------------
   1       0.00345,   -0.01867    -0.01414,   -0.00311     0.00277,   -0.01161     0.00987,    0.02175
   2      -0.03518,    0.01872     0.01496,    0.02376    -0.02117,   -0.00844    -0.00207,   -0.02524
   3       0.02399,    0.00603    -0.02555,    0.04119     0.01631,    0.01125    -0.00553,    0.00959
   4       0.04000,   -0.00880     0.04163,   -0.01226     0.02146,   -0.00023     0.03461,   -0.01768
   5      -0.01441,    0.05025    -0.00222,   -0.00081    -0.00130,    0.02513     0.02622,   -0.00467
   6       0.31053,   -0.34068     0.29509,   -0.32289     0.35889,   -0.39489     0.02756,    0.00234
   7      -0.26353,    0.37155     0.26053,   -0.33417     0.35766,   -0.45945     0.02300,   -0.03740
   8      -0.37004,   -0.32053    -0.45304,   -0.38241     0.35436,    0.27937     0.02135,   -0.00704
   9      -0.48867,    0.27793     0.42717,   -0.27641    -0.33489,    0.19305    -0.21450,    0.14096
  10      -0.03695,    0.12633     0.06022,   -0.09950    -0.05834,    0.13290     0.35239,   -0.89621

                     WFN1 Final Alpha Natural Orbital Analysis
                     -----------------------------------------

 Vector    1  Occ=9.550332D-01  E= 0.000000D+00
              MO Center= -8.8D-04, -4.2D-04,  7.5D-03, r^2= 1.5D+00
   Bfn.  Coefficient  Atom+Function         Bfn.  Coefficient  Atom+Function  
  ----- ------------  ---------------      ----- ------------  ---------------
     7      0.439517  2 H  s                  2      0.435918  1 H  s          
     6      0.233062  2 H  s                  1      0.228160  1 H  s          

 Vector    2  Occ=4.187371D-02  E= 0.000000D+00
              MO Center= -3.5D-03,  1.7D-02, -2.4D-02, r^2= 1.9D+00
   Bfn.  Coefficient  Atom+Function         Bfn.  Coefficient  Atom+Function  
  ----- ------------  ---------------      ----- ------------  ---------------
     2      0.651525  1 H  s                  7     -0.653776  2 H  s          
     1      0.290702  1 H  s                  6     -0.277163  2 H  s          
     4      0.034216  1 H  py                 5     -0.026589  1 H  pz         

 Vector    3  Occ=8.935829D-04  E= 0.000000D+00
              MO Center= -8.9D-04, -3.5D-04, -2.6D-02, r^2= 2.3D+00
   Bfn.  Coefficient  Atom+Function         Bfn.  Coefficient  Atom+Function  
  ----- ------------  ---------------      ----- ------------  ---------------
     2      1.073999  1 H  s                  7     -1.056578  2 H  s          
     1     -0.922320  1 H  s                  6      0.890467  2 H  s          
    10     -0.028360  2 H  pz                 4      0.025902  1 H  py         

 Vector    4  Occ=1.010038D-03  E= 0.000000D+00
              MO Center=  2.9D-03,  3.2D-03,  2.1D-02, r^2= 1.7D+00
   Bfn.  Coefficient  Atom+Function         Bfn.  Coefficient  Atom+Function  
  ----- ------------  ---------------      ----- ------------  ---------------
     6     -0.942200  2 H  s                  1     -0.913514  1 H  s          
     7      0.688904  2 H  s                  2      0.671122  1 H  s          
    10      0.045043  2 H  pz                 9     -0.031944  2 H  py         
     3     -0.027855  1 H  px         

 Vector    5  Occ=4.772577D-04  E= 0.000000D+00
              MO Center= -3.3D-04,  3.7D-05,  3.2D-02, r^2= 1.1D+00
   Bfn.  Coefficient  Atom+Function         Bfn.  Coefficient  Atom+Function  
  ----- ------------  ---------------      ----- ------------  ---------------
    10     -0.705650  2 H  pz                 5      0.685287  1 H  pz         
     2     -0.086537  1 H  s                  6     -0.041821  2 H  s          
     3     -0.037933  1 H  px                 1      0.036133  1 H  s          
     8      0.027570  2 H  px         

 Vector    6  Occ=1.780699D-04  E= 0.000000D+00
              MO Center= -2.8D-03, -2.7D-03, -3.4D-02, r^2= 1.0D+00
   Bfn.  Coefficient  Atom+Function         Bfn.  Coefficient  Atom+Function  
  ----- ------------  ---------------      ----- ------------  ---------------
     3      0.530229  1 H  px                 9      0.511250  2 H  py         
     4      0.485695  1 H  py                 8      0.462999  2 H  px         
     7      0.051547  2 H  s                  6     -0.045308  2 H  s          
     5      0.034325  1 H  pz         

 Vector    7  Occ=4.743350D-17  E= 0.000000D+00
              MO Center=  1.9D-04, -3.4D-04,  5.4D-02, r^2= 1.0D+00
   Bfn.  Coefficient  Atom+Function         Bfn.  Coefficient  Atom+Function  
  ----- ------------  ---------------      ----- ------------  ---------------
     8      0.527916  2 H  px                 9     -0.499808  2 H  py         
     4     -0.493329  1 H  py                 3      0.470485  1 H  px         
     7     -0.040586  2 H  s                  5      0.039219  1 H  pz         
     2      0.038496  1 H  s                 10      0.034658  2 H  pz         

 Vector    8  Occ=2.585070D-18  E= 0.000000D+00
              MO Center= -5.3D-03, -1.1D-02,  1.4D-02, r^2= 1.0D+00
   Bfn.  Coefficient  Atom+Function         Bfn.  Coefficient  Atom+Function  
  ----- ------------  ---------------      ----- ------------  ---------------
     9      0.648074  2 H  py                 4     -0.630462  1 H  py         
     3     -0.307615  1 H  px                 8      0.299914  2 H  px         
     5     -0.028954  1 H  pz                 2      0.026780  1 H  s          

 Vector    9  Occ=1.283231D-04  E= 0.000000D+00
              MO Center=  9.3D-03, -3.9D-03, -3.2D-02, r^2= 1.0D+00
   Bfn.  Coefficient  Atom+Function         Bfn.  Coefficient  Atom+Function  
  ----- ------------  ---------------      ----- ------------  ---------------
     8      0.641730  2 H  px                 3     -0.632458  1 H  px         
     4      0.347899  1 H  py                 9     -0.257737  2 H  py         
    10      0.055875  2 H  pz                 6      0.040627  2 H  s          

 Vector   10  Occ=4.058589D-04  E= 0.000000D+00
              MO Center=  1.4D-03, -1.7D-03, -1.2D-02, r^2= 1.0D+00
   Bfn.  Coefficient  Atom+Function         Bfn.  Coefficient  Atom+Function  
  ----- ------------  ---------------      ----- ------------  ---------------
     5      0.740522  1 H  pz                10      0.719257  2 H  pz         
     7     -0.251832  2 H  s                  2      0.227391  1 H  s          
     6      0.100841  2 H  s                  1     -0.067789  1 H  s          
     8     -0.065995  2 H  px                 9      0.026383  2 H  py         


                     WFN1 Final Beta Natural Orbital Analysis
                     ----------------------------------------

 Vector    1  Occ=9.550332D-01  E= 0.000000D+00
              MO Center= -8.8D-04, -4.2D-04,  7.5D-03, r^2= 1.5D+00
   Bfn.  Coefficient  Atom+Function         Bfn.  Coefficient  Atom+Function  
  ----- ------------  ---------------      ----- ------------  ---------------
     7      0.439517  2 H  s                  2      0.435918  1 H  s          
     6      0.233062  2 H  s                  1      0.228160  1 H  s          

 Vector    2  Occ=4.187371D-02  E= 0.000000D+00
              MO Center= -3.5D-03,  1.7D-02, -2.4D-02, r^2= 1.9D+00
   Bfn.  Coefficient  Atom+Function         Bfn.  Coefficient  Atom+Function  
  ----- ------------  ---------------      ----- ------------  ---------------
     2      0.651525  1 H  s                  7     -0.653776  2 H  s          
     1      0.290702  1 H  s                  6     -0.277163  2 H  s          
     4      0.034216  1 H  py                 5     -0.026589  1 H  pz         

 Vector    3  Occ=8.935829D-04  E= 0.000000D+00
              MO Center= -8.9D-04, -3.5D-04, -2.6D-02, r^2= 2.3D+00
   Bfn.  Coefficient  Atom+Function         Bfn.  Coefficient  Atom+Function  
  ----- ------------  ---------------      ----- ------------  ---------------
     2      1.073999  1 H  s                  7     -1.056578  2 H  s          
     1     -0.922320  1 H  s                  6      0.890467  2 H  s          
    10     -0.028360  2 H  pz                 4      0.025902  1 H  py         

 Vector    4  Occ=1.010038D-03  E= 0.000000D+00
              MO Center=  2.9D-03,  3.2D-03,  2.1D-02, r^2= 1.7D+00
   Bfn.  Coefficient  Atom+Function         Bfn.  Coefficient  Atom+Function  
  ----- ------------  ---------------      ----- ------------  ---------------
     6     -0.942200  2 H  s                  1     -0.913514  1 H  s          
     7      0.688904  2 H  s                  2      0.671122  1 H  s          
    10      0.045043  2 H  pz                 9     -0.031944  2 H  py         
     3     -0.027855  1 H  px         

 Vector    5  Occ=4.772577D-04  E= 0.000000D+00
              MO Center= -3.3D-04,  3.7D-05,  3.2D-02, r^2= 1.1D+00
   Bfn.  Coefficient  Atom+Function         Bfn.  Coefficient  Atom+Function  
  ----- ------------  ---------------      ----- ------------  ---------------
    10     -0.705650  2 H  pz                 5      0.685287  1 H  pz         
     2     -0.086537  1 H  s                  6     -0.041821  2 H  s          
     3     -0.037933  1 H  px                 1      0.036133  1 H  s          
     8      0.027570  2 H  px         

 Vector    6  Occ=1.780699D-04  E= 0.000000D+00
              MO Center= -2.8D-03, -2.7D-03, -3.4D-02, r^2= 1.0D+00
   Bfn.  Coefficient  Atom+Function         Bfn.  Coefficient  Atom+Function  
  ----- ------------  ---------------      ----- ------------  ---------------
     3      0.530229  1 H  px                 9      0.511250  2 H  py         
     4      0.485695  1 H  py                 8      0.462999  2 H  px         
     7      0.051547  2 H  s                  6     -0.045308  2 H  s          
     5      0.034325  1 H  pz         

 Vector    7  Occ=4.743350D-17  E= 0.000000D+00
              MO Center=  1.9D-04, -3.4D-04,  5.4D-02, r^2= 1.0D+00
   Bfn.  Coefficient  Atom+Function         Bfn.  Coefficient  Atom+Function  
  ----- ------------  ---------------      ----- ------------  ---------------
     8      0.527916  2 H  px                 9     -0.499808  2 H  py         
     4     -0.493329  1 H  py                 3      0.470485  1 H  px         
     7     -0.040586  2 H  s                  5      0.039219  1 H  pz         
     2      0.038496  1 H  s                 10      0.034658  2 H  pz         

 Vector    8  Occ=2.585070D-18  E= 0.000000D+00
              MO Center= -5.3D-03, -1.1D-02,  1.4D-02, r^2= 1.0D+00
   Bfn.  Coefficient  Atom+Function         Bfn.  Coefficient  Atom+Function  
  ----- ------------  ---------------      ----- ------------  ---------------
     9      0.648074  2 H  py                 4     -0.630462  1 H  py         
     3     -0.307615  1 H  px                 8      0.299914  2 H  px         
     5     -0.028954  1 H  pz                 2      0.026780  1 H  s          

 Vector    9  Occ=1.283231D-04  E= 0.000000D+00
              MO Center=  9.3D-03, -3.9D-03, -3.2D-02, r^2= 1.0D+00
   Bfn.  Coefficient  Atom+Function         Bfn.  Coefficient  Atom+Function  
  ----- ------------  ---------------      ----- ------------  ---------------
     8      0.641730  2 H  px                 3     -0.632458  1 H  px         
     4      0.347899  1 H  py                 9     -0.257737  2 H  py         
    10      0.055875  2 H  pz                 6      0.040627  2 H  s          

 Vector   10  Occ=4.058589D-04  E= 0.000000D+00
              MO Center=  1.4D-03, -1.7D-03, -1.2D-02, r^2= 1.0D+00
   Bfn.  Coefficient  Atom+Function         Bfn.  Coefficient  Atom+Function  
  ----- ------------  ---------------      ----- ------------  ---------------
     5      0.740522  1 H  pz                10      0.719257  2 H  pz         
     7     -0.251832  2 H  s                  2      0.227391  1 H  s          
     6      0.100841  2 H  s                  1     -0.067789  1 H  s          
     8     -0.065995  2 H  px                 9      0.026383  2 H  py         


 Task  times  cpu:      172.9s     wall:      201.8s
 Summary of allocated global arrays
-----------------------------------
  No active global arrays



                         GA Statistics for process    0
                         ------------------------------

       create   destroy   get      put      acc     scatter   gather  read&inc
calls:   44       44     6.29e+07 2.85e+04 3.60e+04    0        0       11     
number of processes/call 1.00e+00 1.00e+00 1.00e+00 0.00e+00 0.00e+00
bytes total:             5.03e+10 2.88e+07 3.59e+07 0.00e+00 0.00e+00 8.80e+01
bytes remote:            0.00e+00 0.00e+00 0.00e+00 0.00e+00 0.00e+00 0.00e+00
Max memory consumed for GA by this process: 268000 bytes
MA_summarize_allocated_blocks: starting scan ...
MA_summarize_allocated_blocks: scan completed: 0 heap blocks, 0 stack blocks
MA usage statistics:

	allocation statistics:
					      heap	     stack
					      ----	     -----
	current number of blocks	         0	         0
	maximum number of blocks	        19	        17
	current total bytes		         0	         0
	maximum total bytes		   3205432	  22508664
	maximum total K-bytes		      3206	     22509
	maximum total M-bytes		         4	        23


                                NWChem Input Module
                                -------------------





                                     CITATION
                                     --------
                Please cite the following reference when publishing
                           results obtained with NWChem:

                 M. Valiev, E.J. Bylaska, N. Govind, K. Kowalski,
              T.P. Straatsma, H.J.J. van Dam, D. Wang, J. Nieplocha,
                        E. Apra, T.L. Windus, W.A. de Jong
                 "NWChem: a comprehensive and scalable open-source
                  solution for large scale molecular simulations"
                      Comput. Phys. Commun. 181, 1477 (2010)
                           doi:10.1016/j.cpc.2010.04.018

                                      AUTHORS
                                      -------
          E. Apra, E. J. Bylaska, W. A. de Jong, N. Govind, K. Kowalski,
       T. P. Straatsma, M. Valiev, H. J. J. van Dam, D. Wang, T. L. Windus,
        J. Hammond, J. Autschbach, K. Bhaskaran-Nair, J. Brabec, K. Lopata,
    S. A. Fischer, S. Krishnamoorthy, M. Jacquelin, W. Ma, M. Klemm, O. Villa,
      Y. Chen, V. Anisimov, F. Aquino, S. Hirata, M. T. Hackler, V. Konjkov,
      T. Risthaus, M. Malagoli, A. Marenich, A. Otero-de-la-Roza, J. Mullin,
        P. Nichols, R. Peverati, J. Pittner, Y. Zhao, P.-D. Fan, A. Fonari,
       M. Williamson, R. J. Harrison, J. R. Rehr, M. Dupuis, D. Silverstein,
    D. M. A. Smith, J. Nieplocha, V. Tipparaju, M. Krishnan, B. E. Van Kuiken,
        A. Vazquez-Mayagoitia, L. Jensen, M. Swart, Q. Wu, T. Van Voorhis,
     A. A. Auer, M. Nooijen, L. D. Crosby, E. Brown, G. Cisneros, G. I. Fann,
   H. Fruchtl, J. Garza, K. Hirao, R. A. Kendall, J. A. Nichols, K. Tsemekhman,
    K. Wolinski, J. Anchell, D. E. Bernholdt, P. Borowski, T. Clark, D. Clerc,
   H. Dachsel, M. J. O. Deegan, K. Dyall, D. Elwood, E. Glendening, M. Gutowski,
   A. C. Hess, J. Jaffe, B. G. Johnson, J. Ju, R. Kobayashi, R. Kutteh, Z. Lin,
   R. Littlefield, X. Long, B. Meng, T. Nakajima, S. Niu, L. Pollack, M. Rosing,
   K. Glaesemann, G. Sandrone, M. Stave, H. Taylor, G. Thomas, J. H. van Lenthe,
                               A. T. Wong, Z. Zhang.

 Total times  cpu:      172.9s     wall:      201.8s
