 argument  1 = input-wf.nw



============================== echo of input deck ==============================
echo
start wfn1_dat
geometry units au noautoz
  H 0 0 -.99434600000000000000
  H 0 0  .99434600000000000000
  symmetry cs
end
basis
  H library 6-31g**
end
set wfn1:input_vectors "atomic"
set wfn1:solver "monte-carlo"
set wfn1:print_error F
set wfn1:t_initial 0.1
#set wfn1:corr_expr "wfn1_mx"
set wfn1:corr_expr "wfn1c"
set wfn1:t_bath 0.0
set wfn1:maxit  20000
task wfn1 energy
================================================================================


                                         
                                         


              Northwest Computational Chemistry Package (NWChem) 6.8
              ------------------------------------------------------


                    Environmental Molecular Sciences Laboratory
                       Pacific Northwest National Laboratory
                                Richland, WA 99352

                              Copyright (c) 1994-2015
                       Pacific Northwest National Laboratory
                            Battelle Memorial Institute

             NWChem is an open-source computational chemistry package
                        distributed under the terms of the
                      Educational Community License (ECL) 2.0
             A copy of the license is included with this distribution
                              in the LICENSE.TXT file

                                  ACKNOWLEDGMENT
                                  --------------

            This software and its documentation were developed at the
            EMSL at Pacific Northwest National Laboratory, a multiprogram
            national laboratory, operated for the U.S. Department of Energy
            by Battelle under Contract Number DE-AC05-76RL01830. Support
            for this work was provided by the Department of Energy Office
            of Biological and Environmental Research, Office of Basic
            Energy Sciences, and the Office of Advanced Scientific Computing.


           Job information
           ---------------

    hostname        = erato
    program         = ../../../bin/LINUX64/nwchem
    date            = Mon Mar  1 10:23:39 2021

    compiled        = Sun_Feb_28_18:02:42_2021
    source          = /home/hvandam/nwchem-1-wfn1
    nwchem branch   = Development
    nwchem revision = nwchem_on_git-124-gad72d19fff205e319ffbbf2bca37a04ded6ad57b
    ga revision     = nwchem_on_git-124-gad72d19
    use scalapack   = F
    input           = input-wf.nw
    prefix          = wfn1_dat.
    data base       = ./wfn1_dat.db
    status          = startup
    nproc           =        1
    time left       =     -1s



           Memory information
           ------------------

    heap     =   13107200 doubles =    100.0 Mbytes
    stack    =   13107197 doubles =    100.0 Mbytes
    global   =   26214400 doubles =    200.0 Mbytes (distinct from heap & stack)
    total    =   52428797 doubles =    400.0 Mbytes
    verify   = yes
    hardfail = no 


           Directory information
           ---------------------

  0 permanent = .
  0 scratch   = .




                                NWChem Input Module
                                -------------------


 Turning off AUTOSYM since
 SYMMETRY directive was detected!



                             Geometry "geometry" -> ""
                             -------------------------

 Output coordinates in a.u. (scale by  1.000000000 to convert to a.u.)

  No.       Tag          Charge          X              Y              Z
 ---- ---------------- ---------- -------------- -------------- --------------
    1 H                    1.0000     0.00000000     0.00000000    -0.99434600
    2 H                    1.0000     0.00000000     0.00000000     0.99434600

      Atomic Mass 
      ----------- 

      H                  1.007825


 Effective nuclear repulsion energy (a.u.)       0.5028430747

            Nuclear Dipole moment (a.u.) 
            ----------------------------
        X                 Y               Z
 ---------------- ---------------- ----------------
     0.0000000000     0.0000000000     0.0000000000

      Symmetry information
      --------------------

 Group name             Cs        
 Group number              2
 Group order               2
 No. of unique centers     1

      Symmetry unique atoms

     1


            XYZ format geometry
            -------------------
     2
 geometry
 H                     0.00000000     0.00000000    -0.52618528
 H                     0.00000000     0.00000000     0.52618528

                      Basis "ao basis" -> "" (cartesian)
                      -----
  H (Hydrogen)
  ------------
            Exponent  Coefficients 
       -------------- ---------------------------------------------------------
  1 S  1.87311370E+01  0.033495
  1 S  2.82539370E+00  0.234727
  1 S  6.40121700E-01  0.813757

  2 S  1.61277800E-01  1.000000

  3 P  1.10000000E+00  1.000000



 Summary of "ao basis" -> "" (cartesian)
 ------------------------------------------------------------------------------
       Tag                 Description            Shells   Functions and Types
 ---------------- ------------------------------  ------  ---------------------
 H                          6-31g**                  3        5   2s1p



                                NWChem WFN1 Module
                                ------------------



          No. of electrons :     2
           Alpha electrons :     1
            Beta electrons :     1
          Charge           :     0
          Spin multiplicity:     1

 HvD: wfn1_inpdft
 HvD: nquad_task =                     1
 HvD: iangquad   =                     0
 HvD: gridtype   = user      
 HvD: leb        =  T
 HvD: radgrid    = murakn    
 HvD: trunc_neigh=  T
 HvD: lssw       =  T
 HvD: whichssw   = erf1    
 HvD: mxnrad     =                     0
 HvD: mxnang     =                     0
 HVD: wfn1: movecs_in  = atomic                                                                                                                                                                                                                                                          
 HVD: wfn1: movecs_out = ./wfn1_dat.movecs                                                                                                                                                                                                                                               

      Superposition of Atomic Density Guess
      -------------------------------------

 Sum of atomic energies:          -0.99646508

      Non-variational initial energy
      ------------------------------

 Total energy =      -0.795462
 1-e energy   =      -1.948949
 2-e energy   =       0.650644
 HOMO         =      -0.453878
 LUMO         =       0.084696

 iteration              energy           error
 ---------              ------           -----
         0         -1.08864936        0.200000
         1         -1.08984662        0.200000
         2         -1.09092667        0.200000
         3         -1.09149557        0.185175
         4         -1.09175036        0.116653
         5         -1.09181925        0.100000
         6         -1.09186211        0.100000
         7         -1.09187071        0.100000
         8         -1.09200684        0.079370
         9         -1.09202247        0.073487
        10         -1.09212067        0.068040
        11         -1.09218944        0.050000
        12         -1.09220433        0.046294
        13         -1.09220764        0.046294
        14         -1.09220928        0.046294
        15         -1.09224840        0.039685
        16         -1.09225513        0.039685
        17         -1.09226071        0.039685
        18         -1.09228025        0.039685
        19         -1.09228184        0.034020
        20         -1.09229187        0.034020
        21         -1.09230951        0.029163
        22         -1.09232384        0.027001
        23         -1.09233052        0.027001
        24         -1.09233568        0.023147
        25         -1.09233732        0.017010
        26         -1.09233946        0.017010
        27         -1.09234233        0.012500
        28         -1.09234234        0.012500
        29         -1.09234529        0.010716
        30         -1.09234561        0.009921
        31         -1.09234828        0.009921
        32         -1.09235112        0.009921
        33         -1.09235167        0.007875
        34         -1.09235251        0.007875
        35         -1.09235282        0.007875
        36         -1.09235327        0.006750
        37         -1.09235394        0.006750
        38         -1.09235474        0.006750
        39         -1.09235482        0.006750
        40         -1.09235534        0.006750
        41         -1.09235598        0.006750
        42         -1.09235607        0.006250
        43         -1.09235649        0.005358
        44         -1.09235740        0.005358
        45         -1.09235761        0.004961
        46         -1.09235767        0.004961
        47         -1.09235834        0.004961
        48         -1.09235837        0.004961
        49         -1.09235931        0.004961
        50         -1.09235941        0.004593
        51         -1.09235942        0.004593
        52         -1.09235956        0.004593
        53         -1.09236032        0.004252
        54         -1.09236037        0.003937
        55         -1.09236038        0.003937
        56         -1.09236049        0.003645
        57         -1.09236051        0.003645
        58         -1.09236063        0.003645
        59         -1.09236082        0.003125
        60         -1.09236095        0.003125
        61         -1.09236102        0.003125
        62         -1.09236121        0.003125
        63         -1.09236135        0.002893
        64         -1.09236150        0.002893
        65         -1.09236164        0.002893
        66         -1.09236193        0.002893
        67         -1.09236210        0.002679
        68         -1.09236216        0.002679
        69         -1.09236219        0.002679
        70         -1.09236235        0.002679
        71         -1.09236256        0.002679
        72         -1.09236278        0.002679
        73         -1.09236279        0.002679
        74         -1.09236299        0.002679
        75         -1.09236326        0.002679
        76         -1.09236345        0.002679
        77         -1.09236358        0.002679
        78         -1.09236367        0.002679
        79         -1.09236386        0.002679
        80         -1.09236440        0.002679
        81         -1.09236446        0.002480
        82         -1.09236450        0.002296
        83         -1.09236470        0.002296
        84         -1.09236481        0.002126
        85         -1.09236503        0.002126
        86         -1.09236508        0.002126
        87         -1.09236513        0.002126
        88         -1.09236515        0.001969
        89         -1.09236524        0.001969
        90         -1.09236525        0.001969
        91         -1.09236543        0.001969
        92         -1.09236552        0.001969
        93         -1.09236557        0.001969
        94         -1.09236564        0.001969
        95         -1.09236581        0.001969
        96         -1.09236583        0.001969
        97         -1.09236612        0.001969
        98         -1.09236613        0.001969
        99         -1.09236653        0.001969
       100         -1.09236677        0.001969
       101         -1.09236687        0.001969
       102         -1.09236716        0.001969
       103         -1.09236719        0.001969
       104         -1.09236746        0.001969
       105         -1.09236767        0.001969
       106         -1.09236773        0.001969
       107         -1.09236782        0.001969
       108         -1.09236784        0.001969
       109         -1.09236795        0.001969
       110         -1.09236796        0.001969
       111         -1.09236806        0.001969
       112         -1.09236817        0.001969
       113         -1.09236824        0.001969
       114         -1.09236840        0.001969
       115         -1.09236849        0.001969
       116         -1.09236867        0.001969
       117         -1.09236876        0.001969
       118         -1.09236891        0.001969
       119         -1.09236901        0.001969
       120         -1.09236903        0.001969
       121         -1.09236903        0.001969
       122         -1.09236910        0.001969
       123         -1.09236938        0.001969
       124         -1.09236940        0.001969
       125         -1.09236952        0.001969
       126         -1.09236958        0.001969
       127         -1.09236976        0.001969
       128         -1.09236985        0.001969
       129         -1.09236986        0.001969
       130         -1.09236987        0.001969
       131         -1.09236993        0.001969
       132         -1.09237002        0.001969
       133         -1.09237037        0.001969
       134         -1.09237040        0.001969
       135         -1.09237049        0.001969
       136         -1.09237073        0.001969
       137         -1.09237079        0.001969
       138         -1.09237080        0.001969
       139         -1.09237081        0.001969
       140         -1.09237088        0.001969
       141         -1.09237094        0.001969
       142         -1.09237107        0.001969
       143         -1.09237118        0.001969
       144         -1.09237118        0.001969
       145         -1.09237131        0.001969
       146         -1.09237136        0.001969
       147         -1.09237181        0.001969
       148         -1.09237192        0.001969
       149         -1.09237192        0.001969
       150         -1.09237217        0.001969
       151         -1.09237244        0.001969
       152         -1.09237251        0.001969
       153         -1.09237260        0.001969
       154         -1.09237262        0.001969
       155         -1.09237305        0.001969
       156         -1.09237315        0.001969
       157         -1.09237329        0.001969
       158         -1.09237334        0.001969
       159         -1.09237345        0.001969
       160         -1.09237348        0.001969
       161         -1.09237351        0.001969
       162         -1.09237372        0.001969
       163         -1.09237375        0.001823
       164         -1.09237375        0.001823
       165         -1.09237375        0.001823
       166         -1.09237388        0.001823
       167         -1.09237409        0.001823
       168         -1.09237414        0.001823
       169         -1.09237416        0.001823
       170         -1.09237429        0.001823
       171         -1.09237434        0.001823
       172         -1.09237439        0.001823
       173         -1.09237441        0.001823
       174         -1.09237464        0.001823
       175         -1.09237467        0.001823
       176         -1.09237469        0.001823
       177         -1.09237472        0.001823
       178         -1.09237472        0.001823
       179         -1.09237474        0.001823
       180         -1.09237498        0.001823
       181         -1.09237508        0.001823
       182         -1.09237518        0.001823
       183         -1.09237529        0.001823
       184         -1.09237540        0.001823
       185         -1.09237542        0.001823
       186         -1.09237557        0.001823
       187         -1.09237560        0.001823
       188         -1.09237564        0.001823
       189         -1.09237582        0.001823
       190         -1.09237584        0.001823
       191         -1.09237585        0.001823
       192         -1.09237608        0.001823
       193         -1.09237611        0.001688
       194         -1.09237613        0.001688
       195         -1.09237630        0.001688
       196         -1.09237633        0.001688
       197         -1.09237636        0.001688
       198         -1.09237638        0.001688
       199         -1.09237644        0.001688
       200         -1.09237651        0.001688
       201         -1.09237661        0.001563
       202         -1.09237663        0.001563
       203         -1.09237683        0.001563
       204         -1.09237683        0.001563
       205         -1.09237701        0.001563
       206         -1.09237717        0.001563
       207         -1.09237724        0.001563
       208         -1.09237728        0.001563
       209         -1.09237741        0.001563
       210         -1.09237763        0.001563
       211         -1.09237766        0.001563
       212         -1.09237770        0.001563
       213         -1.09237785        0.001563
       214         -1.09237805        0.001563
       215         -1.09237832        0.001563
       216         -1.09237836        0.001563
       217         -1.09237840        0.001563
       218         -1.09237840        0.001563
       219         -1.09237840        0.001563
       220         -1.09237852        0.001563
       221         -1.09237855        0.001563
       222         -1.09237860        0.001563
       223         -1.09237863        0.001563
       224         -1.09237882        0.001563
       225         -1.09237911        0.001563
       226         -1.09237917        0.001447
       227         -1.09237919        0.001447
       228         -1.09237931        0.001447
       229         -1.09237934        0.001447
       230         -1.09237934        0.001447
       231         -1.09237935        0.001447
       232         -1.09237935        0.001447
       233         -1.09237946        0.001447
       234         -1.09237947        0.001447
       235         -1.09237955        0.001447
       236         -1.09237973        0.001447
       237         -1.09237983        0.001447
       238         -1.09237998        0.001447
       239         -1.09238009        0.001447
       240         -1.09238027        0.001339
       241         -1.09238035        0.001339
       242         -1.09238037        0.001339
       243         -1.09238043        0.001339
       244         -1.09238051        0.001339
       245         -1.09238052        0.001339
       246         -1.09238059        0.001339
       247         -1.09238061        0.001339
       248         -1.09238071        0.001339
       249         -1.09238078        0.001339
       250         -1.09238084        0.001339
       251         -1.09238090        0.001339
       252         -1.09238095        0.001339
       253         -1.09238098        0.001339
       254         -1.09238100        0.001339
       255         -1.09238119        0.001339
       256         -1.09238132        0.001339
       257         -1.09238137        0.001339
       258         -1.09238138        0.001339
       259         -1.09238146        0.001339
       260         -1.09238146        0.001339
       261         -1.09238147        0.001339
       262         -1.09238159        0.001339
       263         -1.09238165        0.001339
       264         -1.09238169        0.001339
       265         -1.09238175        0.001339
       266         -1.09238187        0.001339
       267         -1.09238187        0.001339
       268         -1.09238189        0.001339
       269         -1.09238189        0.001339
       270         -1.09238210        0.001339
       271         -1.09238216        0.001339
       272         -1.09238222        0.001339
       273         -1.09238232        0.001339
       274         -1.09238238        0.001339
       275         -1.09238246        0.001339
       276         -1.09238266        0.001339
       277         -1.09238267        0.001339
       278         -1.09238273        0.001339
       279         -1.09238277        0.001339
       280         -1.09238278        0.001339
       281         -1.09238285        0.001339
       282         -1.09238285        0.001339
       283         -1.09238290        0.001339
       284         -1.09238304        0.001339
       285         -1.09238304        0.001339
       286         -1.09238305        0.001339
       287         -1.09238307        0.001339
       288         -1.09238324        0.001339
       289         -1.09238333        0.001339
       290         -1.09238336        0.001339
       291         -1.09238342        0.001339
       292         -1.09238350        0.001339
       293         -1.09238352        0.001339
       294         -1.09238359        0.001339
       295         -1.09238366        0.001339
       296         -1.09238373        0.001339
       297         -1.09238374        0.001339
       298         -1.09238379        0.001339
       299         -1.09238387        0.001339
       300         -1.09238391        0.001339
       301         -1.09238393        0.001339
       302         -1.09238398        0.001339
       303         -1.09238413        0.001339
       304         -1.09238418        0.001339
       305         -1.09238437        0.001339
       306         -1.09238442        0.001339
       307         -1.09238459        0.001339
       308         -1.09238462        0.001339
       309         -1.09238466        0.001339
       310         -1.09238468        0.001339
       311         -1.09238477        0.001339
       312         -1.09238483        0.001339
       313         -1.09238491        0.001339
       314         -1.09238499        0.001339
       315         -1.09238503        0.001339
       316         -1.09238504        0.001339
       317         -1.09238510        0.001339
       318         -1.09238515        0.001339
       319         -1.09238524        0.001339
       320         -1.09238533        0.001339
       321         -1.09238533        0.001339
       322         -1.09238543        0.001339
       323         -1.09238546        0.001339
       324         -1.09238556        0.001339
       325         -1.09238568        0.001339
       326         -1.09238569        0.001339
       327         -1.09238570        0.001339
       328         -1.09238579        0.001339
       329         -1.09238592        0.001339
       330         -1.09238601        0.001339
       331         -1.09238615        0.001339
       332         -1.09238620        0.001339
       333         -1.09238627        0.001339
       334         -1.09238636        0.001339
       335         -1.09238643        0.001339
       336         -1.09238646        0.001339
       337         -1.09238649        0.001339
       338         -1.09238651        0.001339
       339         -1.09238662        0.001339
       340         -1.09238669        0.001339
       341         -1.09238679        0.001339
       342         -1.09238694        0.001339
       343         -1.09238699        0.001339
       344         -1.09238701        0.001339
       345         -1.09238708        0.001339
       346         -1.09238711        0.001339
       347         -1.09238722        0.001339
       348         -1.09238725        0.001339
       349         -1.09238727        0.001339
       350         -1.09238728        0.001339
       351         -1.09238735        0.001339
       352         -1.09238738        0.001339
       353         -1.09238742        0.001339
       354         -1.09238744        0.001240
       355         -1.09238745        0.001240
       356         -1.09238763        0.001240
       357         -1.09238764        0.001240
       358         -1.09238766        0.001240
       359         -1.09238772        0.001240
       360         -1.09238775        0.001240
       361         -1.09238781        0.001240
       362         -1.09238783        0.001240
       363         -1.09238785        0.001240
       364         -1.09238795        0.001240
       365         -1.09238796        0.001240
       366         -1.09238802        0.001240
       367         -1.09238803        0.001240
       368         -1.09238805        0.001240
       369         -1.09238809        0.001240
       370         -1.09238824        0.001240
       371         -1.09238836        0.001240
       372         -1.09238841        0.001240
       373         -1.09238845        0.001240
       374         -1.09238847        0.001240
       375         -1.09238865        0.001240
       376         -1.09238865        0.001240
       377         -1.09238867        0.001240
       378         -1.09238874        0.001240
       379         -1.09238875        0.001240
       380         -1.09238875        0.001240
       381         -1.09238876        0.001240
       382         -1.09238877        0.001240
       383         -1.09238879        0.001240
       384         -1.09238883        0.001240
       385         -1.09238894        0.001240
       386         -1.09238903        0.001240
       387         -1.09238905        0.001240
       388         -1.09238907        0.001240
       389         -1.09238915        0.001240
       390         -1.09238921        0.001240
       391         -1.09238933        0.001240
       392         -1.09238934        0.001240
       393         -1.09238934        0.001240
       394         -1.09238937        0.001240
       395         -1.09238939        0.001240
       396         -1.09238945        0.001240
       397         -1.09238946        0.001240
       398         -1.09238949        0.001240
       399         -1.09238956        0.001240
       400         -1.09238961        0.001240
       401         -1.09238963        0.001240
       402         -1.09238967        0.001240
       403         -1.09238969        0.001240
       404         -1.09238976        0.001240
       405         -1.09238977        0.001240
       406         -1.09238980        0.001240
       407         -1.09238988        0.001240
       408         -1.09238989        0.001240
       409         -1.09238995        0.001240
       410         -1.09239002        0.001240
       411         -1.09239008        0.001240
       412         -1.09239018        0.001240
       413         -1.09239019        0.001240
       414         -1.09239034        0.001240
       415         -1.09239034        0.001240
       416         -1.09239037        0.001240
       417         -1.09239052        0.001240
       418         -1.09239052        0.001240
       419         -1.09239065        0.001240
       420         -1.09239076        0.001240
       421         -1.09239076        0.001240
       422         -1.09239078        0.001240
       423         -1.09239096        0.001240
       424         -1.09239097        0.001240
       425         -1.09239102        0.001240
       426         -1.09239115        0.001240
       427         -1.09239121        0.001240
       428         -1.09239129        0.001240
       429         -1.09239137        0.001240
       430         -1.09239139        0.001240
       431         -1.09239143        0.001240
       432         -1.09239144        0.001240
       433         -1.09239152        0.001240
       434         -1.09239155        0.001240
       435         -1.09239160        0.001240
       436         -1.09239163        0.001240
       437         -1.09239176        0.001240
       438         -1.09239182        0.001240
       439         -1.09239189        0.001240
       440         -1.09239216        0.001240
       441         -1.09239231        0.001240
       442         -1.09239235        0.001240
       443         -1.09239244        0.001240
       444         -1.09239245        0.001240
       445         -1.09239250        0.001240
       446         -1.09239264        0.001240
       447         -1.09239269        0.001240
       448         -1.09239276        0.001240
       449         -1.09239287        0.001240
       450         -1.09239289        0.001148
       451         -1.09239296        0.001148
       452         -1.09239301        0.001148
       453         -1.09239312        0.001148
       454         -1.09239316        0.001148
       455         -1.09239322        0.001148
       456         -1.09239330        0.001148
       457         -1.09239330        0.001148
       458         -1.09239337        0.001148
       459         -1.09239340        0.001148
       460         -1.09239345        0.001148
       461         -1.09239347        0.001148
       462         -1.09239347        0.001148
       463         -1.09239356        0.001148
       464         -1.09239356        0.001148
       465         -1.09239363        0.001148
       466         -1.09239371        0.001148
       467         -1.09239378        0.001148
       468         -1.09239381        0.001148
       469         -1.09239389        0.001148
       470         -1.09239390        0.001148
       471         -1.09239394        0.001148
       472         -1.09239398        0.001148
       473         -1.09239405        0.001148
       474         -1.09239407        0.001148
       475         -1.09239414        0.001148
       476         -1.09239419        0.001148
       477         -1.09239427        0.001148
       478         -1.09239434        0.001148
       479         -1.09239441        0.001148
       480         -1.09239447        0.001148
       481         -1.09239449        0.001148
       482         -1.09239456        0.001148
       483         -1.09239464        0.001148
       484         -1.09239472        0.001148
       485         -1.09239476        0.001148
       486         -1.09239485        0.001148
       487         -1.09239486        0.001148
       488         -1.09239492        0.001148
       489         -1.09239494        0.001148
       490         -1.09239498        0.001148
       491         -1.09239501        0.001148
       492         -1.09239501        0.001148
       493         -1.09239513        0.001148
       494         -1.09239520        0.001148
       495         -1.09239522        0.001148
       496         -1.09239525        0.001148
       497         -1.09239531        0.001148
       498         -1.09239532        0.001148
       499         -1.09239534        0.001148
       500         -1.09239542        0.001148
       501         -1.09239547        0.001148
       502         -1.09239548        0.001148
       503         -1.09239564        0.001148
       504         -1.09239572        0.001148
       505         -1.09239572        0.001148
       506         -1.09239577        0.001148
       507         -1.09239586        0.001148
       508         -1.09239594        0.001148
       509         -1.09239600        0.001148
       510         -1.09239601        0.001148
       511         -1.09239605        0.001148
       512         -1.09239607        0.001148
       513         -1.09239620        0.001148
       514         -1.09239623        0.001148
       515         -1.09239627        0.001148
       516         -1.09239631        0.001148
       517         -1.09239635        0.001148
       518         -1.09239640        0.001148
       519         -1.09239644        0.001148
       520         -1.09239646        0.001148
       521         -1.09239654        0.001148
       522         -1.09239655        0.001148
       523         -1.09239666        0.001148
       524         -1.09239670        0.001148
       525         -1.09239672        0.001148
       526         -1.09239677        0.001148
       527         -1.09239688        0.001148
       528         -1.09239690        0.001148
       529         -1.09239699        0.001148
       530         -1.09239702        0.001148
       531         -1.09239709        0.001148
       532         -1.09239721        0.001148
       533         -1.09239722        0.001148
       534         -1.09239726        0.001148
       535         -1.09239732        0.001148
       536         -1.09239737        0.001148
       537         -1.09239748        0.001148
       538         -1.09239754        0.001148
       539         -1.09239763        0.001148
       540         -1.09239772        0.001148
       541         -1.09239773        0.001148
       542         -1.09239776        0.001148
       543         -1.09239782        0.001148
       544         -1.09239786        0.001148
       545         -1.09239791        0.001148
       546         -1.09239804        0.001148
       547         -1.09239806        0.001148
       548         -1.09239807        0.001148
       549         -1.09239815        0.001148
       550         -1.09239830        0.001148
       551         -1.09239833        0.001148
       552         -1.09239834        0.001148
       553         -1.09239838        0.001148
       554         -1.09239838        0.001148
       555         -1.09239841        0.001148
       556         -1.09239856        0.001148
       557         -1.09239868        0.001148
       558         -1.09239879        0.001148
       559         -1.09239884        0.001148
       560         -1.09239885        0.001148
       561         -1.09239886        0.001148
       562         -1.09239892        0.001148
       563         -1.09239903        0.001148
       564         -1.09239908        0.001148
       565         -1.09239917        0.001148
       566         -1.09239918        0.001148
       567         -1.09239918        0.001148
       568         -1.09239924        0.001148
       569         -1.09239926        0.001148
       570         -1.09239936        0.001148
       571         -1.09239947        0.001148
       572         -1.09239953        0.001148
       573         -1.09239960        0.001148
       574         -1.09239963        0.001148
       575         -1.09239968        0.001148
       576         -1.09239973        0.001148
       577         -1.09239974        0.001148
       578         -1.09239984        0.001148
       579         -1.09239988        0.001148
       580         -1.09239989        0.001148
       581         -1.09239997        0.001148
       582         -1.09240003        0.001148
       583         -1.09240003        0.001148
       584         -1.09240007        0.001148
       585         -1.09240015        0.001148
       586         -1.09240020        0.001148
       587         -1.09240023        0.001148
       588         -1.09240028        0.001148
       589         -1.09240041        0.001148
       590         -1.09240049        0.001148
       591         -1.09240050        0.001148
       592         -1.09240051        0.001148
       593         -1.09240057        0.001148
       594         -1.09240059        0.001148
       595         -1.09240061        0.001148
       596         -1.09240061        0.001148
       597         -1.09240065        0.001148
       598         -1.09240066        0.001148
       599         -1.09240066        0.001148
       600         -1.09240070        0.001148
       601         -1.09240071        0.001148
       602         -1.09240074        0.001148
       603         -1.09240076        0.001148
       604         -1.09240088        0.001148
       605         -1.09240089        0.001148
       606         -1.09240091        0.001148
       607         -1.09240093        0.001148
       608         -1.09240097        0.001148
       609         -1.09240109        0.001148
       610         -1.09240112        0.001148
       611         -1.09240112        0.001148
       612         -1.09240128        0.001148
       613         -1.09240135        0.001148
       614         -1.09240138        0.001148
       615         -1.09240140        0.001148
       616         -1.09240151        0.001148
       617         -1.09240163        0.001148
       618         -1.09240165        0.001148
       619         -1.09240165        0.001148
       620         -1.09240183        0.001148
       621         -1.09240188        0.001148
       622         -1.09240191        0.001148
       623         -1.09240196        0.001148
       624         -1.09240215        0.001148
       625         -1.09240219        0.001148
       626         -1.09240227        0.001148
       627         -1.09240231        0.001148
       628         -1.09240232        0.001148
       629         -1.09240232        0.001148
       630         -1.09240234        0.001148
       631         -1.09240248        0.001148
       632         -1.09240254        0.001148
       633         -1.09240255        0.001148
       634         -1.09240265        0.001148
       635         -1.09240273        0.001148
       636         -1.09240279        0.001148
       637         -1.09240285        0.001148
       638         -1.09240287        0.001148
       639         -1.09240295        0.001148
       640         -1.09240301        0.001148
       641         -1.09240307        0.001148
       642         -1.09240310        0.001148
       643         -1.09240318        0.001148
       644         -1.09240320        0.001148
       645         -1.09240335        0.001148
       646         -1.09240337        0.001148
       647         -1.09240338        0.001148
       648         -1.09240342        0.001063
       649         -1.09240350        0.001063
       650         -1.09240354        0.001063
       651         -1.09240359        0.001063
       652         -1.09240359        0.001063
       653         -1.09240366        0.001063
       654         -1.09240369        0.001063
       655         -1.09240374        0.001063
       656         -1.09240387        0.001063
       657         -1.09240397        0.001063
       658         -1.09240406        0.001063
       659         -1.09240415        0.001063
       660         -1.09240419        0.001063
       661         -1.09240426        0.001063
       662         -1.09240427        0.001063
       663         -1.09240430        0.001063
       664         -1.09240434        0.001063
       665         -1.09240442        0.001063
       666         -1.09240447        0.001063
       667         -1.09240449        0.001063
       668         -1.09240452        0.001063
       669         -1.09240455        0.001063
       670         -1.09240461        0.001063
       671         -1.09240462        0.001063
       672         -1.09240462        0.001063
       673         -1.09240467        0.001063
       674         -1.09240477        0.001063
       675         -1.09240480        0.001063
       676         -1.09240480        0.001063
       677         -1.09240487        0.001063
       678         -1.09240493        0.001063
       679         -1.09240498        0.001063
       680         -1.09240510        0.001063
       681         -1.09240510        0.001063
       682         -1.09240518        0.001063
       683         -1.09240520        0.001063
       684         -1.09240530        0.001063
       685         -1.09240531        0.001063
       686         -1.09240534        0.001063
       687         -1.09240546        0.001063
       688         -1.09240556        0.001063
       689         -1.09240559        0.001063
       690         -1.09240564        0.001063
       691         -1.09240565        0.001063
       692         -1.09240573        0.001063
       693         -1.09240581        0.001063
       694         -1.09240585        0.001063
       695         -1.09240597        0.001063
       696         -1.09240600        0.001063
       697         -1.09240604        0.001063
       698         -1.09240616        0.001063
       699         -1.09240619        0.001063
       700         -1.09240630        0.001063
       701         -1.09240630        0.001063
       702         -1.09240630        0.001063
       703         -1.09240631        0.001063
       704         -1.09240649        0.001063
       705         -1.09240649        0.001063
       706         -1.09240650        0.001063
       707         -1.09240660        0.001063
       708         -1.09240664        0.001063
       709         -1.09240667        0.001063
       710         -1.09240670        0.001063
       711         -1.09240677        0.001063
       712         -1.09240685        0.001063
       713         -1.09240686        0.001063
       714         -1.09240688        0.001063
       715         -1.09240697        0.001063
       716         -1.09240705        0.001063
       717         -1.09240708        0.001063
       718         -1.09240709        0.001063
       719         -1.09240711        0.001063
       720         -1.09240714        0.001063
       721         -1.09240719        0.001063
       722         -1.09240723        0.001063
       723         -1.09240725        0.001063
       724         -1.09240728        0.001063
       725         -1.09240732        0.001063
       726         -1.09240734        0.001063
       727         -1.09240737        0.000984
       728         -1.09240741        0.000984
       729         -1.09240746        0.000984
       730         -1.09240746        0.000984
       731         -1.09240749        0.000984
       732         -1.09240756        0.000984
       733         -1.09240764        0.000984
       734         -1.09240769        0.000984
       735         -1.09240779        0.000984
       736         -1.09240782        0.000984
       737         -1.09240786        0.000984
       738         -1.09240793        0.000984
       739         -1.09240795        0.000984
       740         -1.09240797        0.000984
       741         -1.09240802        0.000984
       742         -1.09240811        0.000984
       743         -1.09240812        0.000984
       744         -1.09240812        0.000984
       745         -1.09240813        0.000984
       746         -1.09240814        0.000984
       747         -1.09240826        0.000984
       748         -1.09240832        0.000984
       749         -1.09240835        0.000984
       750         -1.09240839        0.000984
       751         -1.09240852        0.000984
       752         -1.09240854        0.000984
       753         -1.09240863        0.000984
       754         -1.09240864        0.000984
       755         -1.09240865        0.000984
       756         -1.09240869        0.000984
       757         -1.09240872        0.000984
       758         -1.09240876        0.000984
       759         -1.09240879        0.000984
       760         -1.09240882        0.000984
       761         -1.09240884        0.000984
       762         -1.09240885        0.000984
       763         -1.09240893        0.000984
       764         -1.09240898        0.000984
       765         -1.09240905        0.000984
       766         -1.09240906        0.000984
       767         -1.09240915        0.000984
       768         -1.09240923        0.000984
       769         -1.09240931        0.000984
       770         -1.09240936        0.000984
       771         -1.09240939        0.000984
       772         -1.09240944        0.000984
       773         -1.09240946        0.000984
       774         -1.09240947        0.000984
       775         -1.09240960        0.000984
       776         -1.09240962        0.000984
       777         -1.09240963        0.000984
       778         -1.09240968        0.000984
       779         -1.09240971        0.000984
       780         -1.09240975        0.000984
       781         -1.09240979        0.000984
       782         -1.09240992        0.000984
       783         -1.09240994        0.000984
       784         -1.09240997        0.000984
       785         -1.09240998        0.000984
       786         -1.09241001        0.000984
       787         -1.09241005        0.000984
       788         -1.09241016        0.000984
       789         -1.09241018        0.000984
       790         -1.09241031        0.000984
       791         -1.09241032        0.000984
       792         -1.09241037        0.000984
       793         -1.09241038        0.000984
       794         -1.09241050        0.000984
       795         -1.09241059        0.000984
       796         -1.09241068        0.000984
       797         -1.09241068        0.000984
       798         -1.09241079        0.000984
       799         -1.09241081        0.000984
       800         -1.09241093        0.000984
       801         -1.09241103        0.000984
       802         -1.09241110        0.000984
       803         -1.09241113        0.000984
       804         -1.09241113        0.000984
       805         -1.09241116        0.000984
       806         -1.09241117        0.000984
       807         -1.09241118        0.000984
       808         -1.09241124        0.000984
       809         -1.09241125        0.000984
       810         -1.09241134        0.000984
       811         -1.09241141        0.000984
       812         -1.09241145        0.000984
       813         -1.09241149        0.000984
       814         -1.09241153        0.000984
       815         -1.09241157        0.000984
       816         -1.09241164        0.000984
       817         -1.09241167        0.000984
       818         -1.09241176        0.000984
       819         -1.09241177        0.000984
       820         -1.09241178        0.000984
       821         -1.09241186        0.000984
       822         -1.09241186        0.000984
       823         -1.09241192        0.000984
       824         -1.09241195        0.000984
       825         -1.09241199        0.000984
       826         -1.09241205        0.000984
       827         -1.09241209        0.000984
       828         -1.09241216        0.000984
       829         -1.09241221        0.000984
       830         -1.09241222        0.000984
       831         -1.09241223        0.000984
       832         -1.09241227        0.000984
       833         -1.09241231        0.000984
       834         -1.09241235        0.000984
       835         -1.09241248        0.000984
       836         -1.09241256        0.000984
       837         -1.09241256        0.000984
       838         -1.09241269        0.000984
       839         -1.09241269        0.000984
       840         -1.09241271        0.000984
       841         -1.09241273        0.000984
       842         -1.09241273        0.000984
       843         -1.09241274        0.000984
       844         -1.09241280        0.000984
       845         -1.09241288        0.000984
       846         -1.09241289        0.000984
       847         -1.09241296        0.000984
       848         -1.09241298        0.000984
       849         -1.09241311        0.000984
       850         -1.09241314        0.000984
       851         -1.09241325        0.000984
       852         -1.09241332        0.000984
       853         -1.09241333        0.000984
       854         -1.09241338        0.000984
       855         -1.09241348        0.000984
       856         -1.09241351        0.000984
       857         -1.09241354        0.000984
       858         -1.09241357        0.000984
       859         -1.09241359        0.000984
       860         -1.09241361        0.000984
       861         -1.09241362        0.000984
       862         -1.09241366        0.000984
       863         -1.09241370        0.000984
       864         -1.09241371        0.000984
       865         -1.09241371        0.000984
       866         -1.09241377        0.000984
       867         -1.09241377        0.000984
       868         -1.09241379        0.000984
       869         -1.09241380        0.000984
       870         -1.09241385        0.000984
       871         -1.09241388        0.000984
       872         -1.09241393        0.000984
       873         -1.09241404        0.000984
       874         -1.09241404        0.000984
       875         -1.09241406        0.000984
       876         -1.09241412        0.000984
       877         -1.09241413        0.000984
       878         -1.09241414        0.000984
       879         -1.09241415        0.000984
       880         -1.09241421        0.000984
       881         -1.09241421        0.000984
       882         -1.09241423        0.000984
       883         -1.09241425        0.000984
       884         -1.09241430        0.000984
       885         -1.09241434        0.000984
       886         -1.09241448        0.000984
       887         -1.09241448        0.000984
       888         -1.09241455        0.000984
       889         -1.09241458        0.000984
       890         -1.09241460        0.000984
       891         -1.09241464        0.000984
       892         -1.09241464        0.000984
       893         -1.09241465        0.000984
       894         -1.09241473        0.000984
       895         -1.09241489        0.000984
       896         -1.09241491        0.000984
       897         -1.09241493        0.000911
       898         -1.09241495        0.000911
       899         -1.09241495        0.000911
       900         -1.09241496        0.000911
       901         -1.09241506        0.000911
       902         -1.09241510        0.000911
       903         -1.09241519        0.000911
       904         -1.09241521        0.000911
       905         -1.09241525        0.000911
       906         -1.09241526        0.000911
       907         -1.09241535        0.000911
       908         -1.09241536        0.000911
       909         -1.09241539        0.000911
       910         -1.09241540        0.000911
       911         -1.09241551        0.000911
       912         -1.09241552        0.000911
       913         -1.09241559        0.000911
       914         -1.09241564        0.000911
       915         -1.09241570        0.000911
       916         -1.09241591        0.000911
       917         -1.09241594        0.000911
       918         -1.09241600        0.000911
       919         -1.09241602        0.000911
       920         -1.09241609        0.000911
       921         -1.09241610        0.000911
       922         -1.09241614        0.000911
       923         -1.09241617        0.000911
       924         -1.09241619        0.000911
       925         -1.09241619        0.000911
       926         -1.09241623        0.000911
       927         -1.09241623        0.000911
       928         -1.09241626        0.000911
       929         -1.09241628        0.000911
       930         -1.09241629        0.000911
       931         -1.09241635        0.000911
       932         -1.09241638        0.000911
       933         -1.09241641        0.000911
       934         -1.09241644        0.000911
       935         -1.09241645        0.000911
       936         -1.09241646        0.000911
       937         -1.09241649        0.000911
       938         -1.09241654        0.000911
       939         -1.09241656        0.000911
       940         -1.09241664        0.000911
       941         -1.09241669        0.000911
       942         -1.09241672        0.000911
       943         -1.09241673        0.000911
       944         -1.09241683        0.000911
       945         -1.09241687        0.000911
       946         -1.09241697        0.000911
       947         -1.09241698        0.000911
       948         -1.09241699        0.000911
       949         -1.09241708        0.000911
       950         -1.09241717        0.000911
       951         -1.09241719        0.000911
       952         -1.09241722        0.000911
       953         -1.09241722        0.000911
       954         -1.09241724        0.000911
       955         -1.09241735        0.000911
       956         -1.09241744        0.000911
       957         -1.09241751        0.000911
       958         -1.09241755        0.000911
       959         -1.09241761        0.000911
       960         -1.09241763        0.000911
       961         -1.09241766        0.000911
       962         -1.09241772        0.000911
       963         -1.09241777        0.000911
       964         -1.09241784        0.000911
       965         -1.09241790        0.000911
       966         -1.09241791        0.000911
       967         -1.09241799        0.000844
       968         -1.09241800        0.000844
       969         -1.09241806        0.000844
       970         -1.09241809        0.000844
       971         -1.09241815        0.000844
       972         -1.09241816        0.000844
       973         -1.09241817        0.000844
       974         -1.09241825        0.000844
       975         -1.09241831        0.000844
       976         -1.09241832        0.000844
       977         -1.09241834        0.000844
       978         -1.09241834        0.000844
       979         -1.09241839        0.000844
       980         -1.09241844        0.000844
       981         -1.09241845        0.000844
       982         -1.09241848        0.000844
       983         -1.09241849        0.000844
       984         -1.09241851        0.000844
       985         -1.09241855        0.000844
       986         -1.09241859        0.000844
       987         -1.09241865        0.000844
       988         -1.09241868        0.000844
       989         -1.09241870        0.000844
       990         -1.09241872        0.000844
       991         -1.09241876        0.000844
       992         -1.09241879        0.000844
       993         -1.09241882        0.000844
       994         -1.09241884        0.000844
       995         -1.09241891        0.000844
       996         -1.09241898        0.000844
       997         -1.09241905        0.000844
       998         -1.09241905        0.000844
       999         -1.09241906        0.000844
      1000         -1.09241911        0.000844
      1001         -1.09241916        0.000844
      1002         -1.09241916        0.000844
      1003         -1.09241922        0.000844
      1004         -1.09241926        0.000844
      1005         -1.09241931        0.000844
      1006         -1.09241938        0.000844
      1007         -1.09241939        0.000844
      1008         -1.09241940        0.000844
      1009         -1.09241943        0.000844
      1010         -1.09241946        0.000844
      1011         -1.09241950        0.000844
      1012         -1.09241953        0.000844
      1013         -1.09241962        0.000844
      1014         -1.09241964        0.000844
      1015         -1.09241966        0.000844
      1016         -1.09241967        0.000844
      1017         -1.09241969        0.000844
      1018         -1.09241972        0.000844
      1019         -1.09241973        0.000844
      1020         -1.09241979        0.000844
      1021         -1.09241980        0.000844
      1022         -1.09241982        0.000844
      1023         -1.09241982        0.000844
      1024         -1.09241987        0.000844
      1025         -1.09241991        0.000844
      1026         -1.09241992        0.000844
      1027         -1.09241995        0.000844
      1028         -1.09242002        0.000844
      1029         -1.09242006        0.000844
      1030         -1.09242006        0.000844
      1031         -1.09242008        0.000844
      1032         -1.09242017        0.000844
      1033         -1.09242018        0.000844
      1034         -1.09242019        0.000844
      1035         -1.09242022        0.000844
      1036         -1.09242023        0.000844
      1037         -1.09242031        0.000844
      1038         -1.09242034        0.000844
      1039         -1.09242044        0.000844
      1040         -1.09242047        0.000844
      1041         -1.09242048        0.000844
      1042         -1.09242048        0.000844
      1043         -1.09242054        0.000844
      1044         -1.09242054        0.000844
      1045         -1.09242060        0.000844
      1046         -1.09242068        0.000844
      1047         -1.09242074        0.000844
      1048         -1.09242076        0.000844
      1049         -1.09242085        0.000844
      1050         -1.09242087        0.000844
      1051         -1.09242091        0.000844
      1052         -1.09242092        0.000844
      1053         -1.09242092        0.000844
      1054         -1.09242097        0.000844
      1055         -1.09242105        0.000844
      1056         -1.09242109        0.000844
      1057         -1.09242110        0.000844
      1058         -1.09242114        0.000844
      1059         -1.09242116        0.000844
      1060         -1.09242119        0.000844
      1061         -1.09242128        0.000844
      1062         -1.09242131        0.000844
      1063         -1.09242139        0.000844
      1064         -1.09242142        0.000844
      1065         -1.09242150        0.000844
      1066         -1.09242156        0.000844
      1067         -1.09242157        0.000844
      1068         -1.09242157        0.000844
      1069         -1.09242160        0.000844
      1070         -1.09242165        0.000844
      1071         -1.09242167        0.000844
      1072         -1.09242169        0.000844
      1073         -1.09242175        0.000844
      1074         -1.09242181        0.000844
      1075         -1.09242186        0.000844
      1076         -1.09242194        0.000844
      1077         -1.09242201        0.000844
      1078         -1.09242214        0.000844
      1079         -1.09242223        0.000844
      1080         -1.09242228        0.000844
      1081         -1.09242230        0.000844
      1082         -1.09242233        0.000844
      1083         -1.09242233        0.000844
      1084         -1.09242234        0.000844
      1085         -1.09242238        0.000844
      1086         -1.09242242        0.000844
      1087         -1.09242248        0.000844
      1088         -1.09242253        0.000844
      1089         -1.09242254        0.000844
      1090         -1.09242258        0.000844
      1091         -1.09242258        0.000844
      1092         -1.09242260        0.000844
      1093         -1.09242264        0.000844
      1094         -1.09242264        0.000844
      1095         -1.09242275        0.000844
      1096         -1.09242275        0.000844
      1097         -1.09242277        0.000844
      1098         -1.09242280        0.000844
      1099         -1.09242285        0.000844
      1100         -1.09242288        0.000844
      1101         -1.09242290        0.000844
      1102         -1.09242298        0.000844
      1103         -1.09242306        0.000844
      1104         -1.09242311        0.000844
      1105         -1.09242315        0.000844
      1106         -1.09242316        0.000844
      1107         -1.09242316        0.000844
      1108         -1.09242318        0.000844
      1109         -1.09242325        0.000844
      1110         -1.09242334        0.000844
      1111         -1.09242339        0.000844
      1112         -1.09242346        0.000844
      1113         -1.09242351        0.000844
      1114         -1.09242353        0.000844
      1115         -1.09242356        0.000844
      1116         -1.09242358        0.000844
      1117         -1.09242358        0.000844
      1118         -1.09242361        0.000844
      1119         -1.09242365        0.000844
      1120         -1.09242370        0.000844
      1121         -1.09242374        0.000844
      1122         -1.09242378        0.000844
      1123         -1.09242378        0.000844
      1124         -1.09242381        0.000844
      1125         -1.09242384        0.000844
      1126         -1.09242385        0.000844
      1127         -1.09242390        0.000844
      1128         -1.09242396        0.000781
      1129         -1.09242397        0.000781
      1130         -1.09242400        0.000781
      1131         -1.09242401        0.000781
      1132         -1.09242417        0.000781
      1133         -1.09242422        0.000781
      1134         -1.09242428        0.000781
      1135         -1.09242429        0.000781
      1136         -1.09242439        0.000781
      1137         -1.09242440        0.000781
      1138         -1.09242443        0.000781
      1139         -1.09242445        0.000781
      1140         -1.09242449        0.000781
      1141         -1.09242451        0.000781
      1142         -1.09242459        0.000781
      1143         -1.09242461        0.000781
      1144         -1.09242464        0.000781
      1145         -1.09242465        0.000781
      1146         -1.09242465        0.000781
      1147         -1.09242473        0.000781
      1148         -1.09242479        0.000781
      1149         -1.09242483        0.000781
      1150         -1.09242487        0.000781
      1151         -1.09242489        0.000781
      1152         -1.09242496        0.000781
      1153         -1.09242501        0.000781
      1154         -1.09242508        0.000781
      1155         -1.09242513        0.000781
      1156         -1.09242514        0.000781
      1157         -1.09242516        0.000781
      1158         -1.09242521        0.000781
      1159         -1.09242528        0.000781
      1160         -1.09242530        0.000781
      1161         -1.09242539        0.000781
      1162         -1.09242542        0.000781
      1163         -1.09242548        0.000781
      1164         -1.09242550        0.000781
      1165         -1.09242553        0.000781
      1166         -1.09242562        0.000781
      1167         -1.09242568        0.000781
      1168         -1.09242569        0.000781
      1169         -1.09242573        0.000781
      1170         -1.09242575        0.000781
      1171         -1.09242575        0.000781
      1172         -1.09242576        0.000781
      1173         -1.09242580        0.000781
      1174         -1.09242583        0.000781
      1175         -1.09242584        0.000781
      1176         -1.09242588        0.000781
      1177         -1.09242593        0.000781
      1178         -1.09242593        0.000781
      1179         -1.09242598        0.000781
      1180         -1.09242599        0.000781
      1181         -1.09242602        0.000781
      1182         -1.09242606        0.000781
      1183         -1.09242610        0.000781
      1184         -1.09242610        0.000781
      1185         -1.09242611        0.000781
      1186         -1.09242612        0.000781
      1187         -1.09242614        0.000781
      1188         -1.09242619        0.000781
      1189         -1.09242622        0.000781
      1190         -1.09242622        0.000723
      1191         -1.09242631        0.000723
      1192         -1.09242631        0.000723
      1193         -1.09242633        0.000723
      1194         -1.09242641        0.000723
      1195         -1.09242644        0.000723
      1196         -1.09242647        0.000723
      1197         -1.09242649        0.000723
      1198         -1.09242651        0.000723
      1199         -1.09242655        0.000723
      1200         -1.09242661        0.000723
      1201         -1.09242661        0.000723
      1202         -1.09242667        0.000723
      1203         -1.09242673        0.000723
      1204         -1.09242675        0.000723
      1205         -1.09242677        0.000723
      1206         -1.09242679        0.000723
      1207         -1.09242679        0.000723
      1208         -1.09242680        0.000723
      1209         -1.09242681        0.000723
      1210         -1.09242686        0.000723
      1211         -1.09242686        0.000723
      1212         -1.09242687        0.000723
      1213         -1.09242697        0.000723
      1214         -1.09242701        0.000723
      1215         -1.09242701        0.000723
      1216         -1.09242701        0.000723
      1217         -1.09242703        0.000723
      1218         -1.09242706        0.000723
      1219         -1.09242707        0.000723
      1220         -1.09242707        0.000723
      1221         -1.09242708        0.000723
      1222         -1.09242712        0.000723
      1223         -1.09242723        0.000723
      1224         -1.09242725        0.000723
      1225         -1.09242726        0.000723
      1226         -1.09242728        0.000723
      1227         -1.09242731        0.000723
      1228         -1.09242734        0.000723
      1229         -1.09242738        0.000723
      1230         -1.09242745        0.000723
      1231         -1.09242746        0.000723
      1232         -1.09242748        0.000723
      1233         -1.09242753        0.000723
      1234         -1.09242756        0.000723
      1235         -1.09242761        0.000723
      1236         -1.09242763        0.000723
      1237         -1.09242771        0.000723
      1238         -1.09242771        0.000723
      1239         -1.09242774        0.000723
      1240         -1.09242781        0.000723
      1241         -1.09242781        0.000723
      1242         -1.09242782        0.000723
      1243         -1.09242787        0.000723
      1244         -1.09242789        0.000723
      1245         -1.09242791        0.000723
      1246         -1.09242795        0.000723
      1247         -1.09242799        0.000723
      1248         -1.09242806        0.000723
      1249         -1.09242809        0.000723
      1250         -1.09242811        0.000723
      1251         -1.09242813        0.000723
      1252         -1.09242814        0.000723
      1253         -1.09242816        0.000723
      1254         -1.09242819        0.000723
      1255         -1.09242826        0.000723
      1256         -1.09242828        0.000723
      1257         -1.09242829        0.000723
      1258         -1.09242829        0.000723
      1259         -1.09242830        0.000723
      1260         -1.09242830        0.000723
      1261         -1.09242830        0.000723
      1262         -1.09242832        0.000723
      1263         -1.09242837        0.000723
      1264         -1.09242844        0.000723
      1265         -1.09242847        0.000723
      1266         -1.09242853        0.000723
      1267         -1.09242857        0.000723
      1268         -1.09242859        0.000723
      1269         -1.09242860        0.000723
      1270         -1.09242867        0.000723
      1271         -1.09242869        0.000723
      1272         -1.09242871        0.000723
      1273         -1.09242886        0.000723
      1274         -1.09242886        0.000723
      1275         -1.09242887        0.000723
      1276         -1.09242888        0.000723
      1277         -1.09242900        0.000723
      1278         -1.09242905        0.000723
      1279         -1.09242911        0.000723
      1280         -1.09242911        0.000723
      1281         -1.09242915        0.000723
      1282         -1.09242916        0.000723
      1283         -1.09242917        0.000723
      1284         -1.09242918        0.000723
      1285         -1.09242921        0.000723
      1286         -1.09242925        0.000723
      1287         -1.09242929        0.000723
      1288         -1.09242934        0.000723
      1289         -1.09242937        0.000723
      1290         -1.09242939        0.000723
      1291         -1.09242939        0.000723
      1292         -1.09242941        0.000723
      1293         -1.09242943        0.000723
      1294         -1.09242946        0.000723
      1295         -1.09242948        0.000723
      1296         -1.09242951        0.000723
      1297         -1.09242951        0.000723
      1298         -1.09242953        0.000723
      1299         -1.09242954        0.000723
      1300         -1.09242959        0.000723
      1301         -1.09242961        0.000723
      1302         -1.09242965        0.000723
      1303         -1.09242967        0.000723
      1304         -1.09242973        0.000723
      1305         -1.09242978        0.000723
      1306         -1.09242979        0.000723
      1307         -1.09242979        0.000723
      1308         -1.09242982        0.000723
      1309         -1.09242984        0.000723
      1310         -1.09242989        0.000723
      1311         -1.09242991        0.000723
      1312         -1.09242992        0.000723
      1313         -1.09242995        0.000723
      1314         -1.09242999        0.000723
      1315         -1.09243008        0.000723
      1316         -1.09243011        0.000723
      1317         -1.09243014        0.000723
      1318         -1.09243022        0.000723
      1319         -1.09243024        0.000723
      1320         -1.09243029        0.000723
      1321         -1.09243036        0.000723
      1322         -1.09243039        0.000723
      1323         -1.09243040        0.000723
      1324         -1.09243044        0.000723
      1325         -1.09243045        0.000723
      1326         -1.09243046        0.000723
      1327         -1.09243051        0.000723
      1328         -1.09243054        0.000723
      1329         -1.09243058        0.000723
      1330         -1.09243062        0.000723
      1331         -1.09243064        0.000723
      1332         -1.09243066        0.000723
      1333         -1.09243067        0.000723
      1334         -1.09243069        0.000723
      1335         -1.09243069        0.000723
      1336         -1.09243075        0.000723
      1337         -1.09243081        0.000723
      1338         -1.09243081        0.000723
      1339         -1.09243087        0.000723
      1340         -1.09243088        0.000723
      1341         -1.09243091        0.000723
      1342         -1.09243094        0.000723
      1343         -1.09243094        0.000723
      1344         -1.09243096        0.000723
      1345         -1.09243097        0.000723
      1346         -1.09243100        0.000723
      1347         -1.09243106        0.000723
      1348         -1.09243106        0.000723
      1349         -1.09243106        0.000723
      1350         -1.09243109        0.000723
      1351         -1.09243110        0.000723
      1352         -1.09243112        0.000723
      1353         -1.09243119        0.000723
      1354         -1.09243120        0.000723
      1355         -1.09243123        0.000723
      1356         -1.09243123        0.000723
      1357         -1.09243126        0.000723
      1358         -1.09243127        0.000723
      1359         -1.09243128        0.000723
      1360         -1.09243131        0.000723
      1361         -1.09243134        0.000723
      1362         -1.09243135        0.000723
      1363         -1.09243142        0.000723
      1364         -1.09243143        0.000723
      1365         -1.09243146        0.000723
      1366         -1.09243152        0.000723
      1367         -1.09243158        0.000723
      1368         -1.09243162        0.000723
      1369         -1.09243165        0.000723
      1370         -1.09243168        0.000723
      1371         -1.09243168        0.000723
      1372         -1.09243171        0.000723
      1373         -1.09243173        0.000723
      1374         -1.09243175        0.000723
      1375         -1.09243183        0.000723
      1376         -1.09243186        0.000723
      1377         -1.09243191        0.000723
      1378         -1.09243197        0.000723
      1379         -1.09243197        0.000723
      1380         -1.09243202        0.000723
      1381         -1.09243203        0.000723
      1382         -1.09243208        0.000723
      1383         -1.09243211        0.000723
      1384         -1.09243211        0.000723
      1385         -1.09243215        0.000723
      1386         -1.09243218        0.000723
      1387         -1.09243219        0.000723
      1388         -1.09243226        0.000723
      1389         -1.09243227        0.000723
      1390         -1.09243227        0.000723
      1391         -1.09243232        0.000723
      1392         -1.09243236        0.000723
      1393         -1.09243240        0.000723
      1394         -1.09243246        0.000723
      1395         -1.09243248        0.000723
      1396         -1.09243254        0.000723
      1397         -1.09243261        0.000723
      1398         -1.09243262        0.000723
      1399         -1.09243262        0.000723
      1400         -1.09243265        0.000723
      1401         -1.09243273        0.000723
      1402         -1.09243277        0.000723
      1403         -1.09243280        0.000723
      1404         -1.09243282        0.000723
      1405         -1.09243284        0.000723
      1406         -1.09243288        0.000723
      1407         -1.09243292        0.000723
      1408         -1.09243295        0.000723
      1409         -1.09243300        0.000723
      1410         -1.09243303        0.000723
      1411         -1.09243308        0.000723
      1412         -1.09243309        0.000723
      1413         -1.09243311        0.000723
      1414         -1.09243321        0.000723
      1415         -1.09243324        0.000723
      1416         -1.09243326        0.000723
      1417         -1.09243329        0.000723
      1418         -1.09243334        0.000723
      1419         -1.09243338        0.000723
      1420         -1.09243341        0.000723
      1421         -1.09243349        0.000723
      1422         -1.09243351        0.000723
      1423         -1.09243354        0.000723
      1424         -1.09243356        0.000723
      1425         -1.09243357        0.000723
      1426         -1.09243357        0.000723
      1427         -1.09243360        0.000723
      1428         -1.09243361        0.000723
      1429         -1.09243363        0.000723
      1430         -1.09243364        0.000723
      1431         -1.09243368        0.000723
      1432         -1.09243371        0.000723
      1433         -1.09243374        0.000723
      1434         -1.09243381        0.000723
      1435         -1.09243384        0.000723
      1436         -1.09243391        0.000723
      1437         -1.09243392        0.000723
      1438         -1.09243393        0.000723
      1439         -1.09243397        0.000723
      1440         -1.09243403        0.000723
      1441         -1.09243406        0.000723
      1442         -1.09243407        0.000723
      1443         -1.09243411        0.000723
      1444         -1.09243411        0.000723
      1445         -1.09243414        0.000723
      1446         -1.09243415        0.000723
      1447         -1.09243419        0.000723
      1448         -1.09243421        0.000723
      1449         -1.09243426        0.000723
      1450         -1.09243428        0.000723
      1451         -1.09243432        0.000723
      1452         -1.09243432        0.000723
      1453         -1.09243434        0.000723
      1454         -1.09243434        0.000723
      1455         -1.09243436        0.000723
      1456         -1.09243437        0.000723
      1457         -1.09243440        0.000723
      1458         -1.09243445        0.000723
      1459         -1.09243449        0.000723
      1460         -1.09243450        0.000723
      1461         -1.09243463        0.000723
      1462         -1.09243466        0.000723
      1463         -1.09243469        0.000723
      1464         -1.09243475        0.000723
      1465         -1.09243477        0.000723
      1466         -1.09243478        0.000723
      1467         -1.09243488        0.000723
      1468         -1.09243489        0.000723
      1469         -1.09243496        0.000723
      1470         -1.09243500        0.000723
      1471         -1.09243506        0.000723
      1472         -1.09243507        0.000723
      1473         -1.09243512        0.000723
      1474         -1.09243517        0.000723
      1475         -1.09243517        0.000723
      1476         -1.09243521        0.000723
      1477         -1.09243522        0.000723
      1478         -1.09243522        0.000723
      1479         -1.09243523        0.000723
      1480         -1.09243524        0.000723
      1481         -1.09243526        0.000723
      1482         -1.09243527        0.000723
      1483         -1.09243531        0.000723
      1484         -1.09243535        0.000723
      1485         -1.09243540        0.000723
      1486         -1.09243541        0.000723
      1487         -1.09243542        0.000723
      1488         -1.09243545        0.000723
      1489         -1.09243548        0.000723
      1490         -1.09243550        0.000723
      1491         -1.09243550        0.000723
      1492         -1.09243558        0.000723
      1493         -1.09243566        0.000723
      1494         -1.09243566        0.000723
      1495         -1.09243571        0.000723
      1496         -1.09243576        0.000723
      1497         -1.09243577        0.000723
      1498         -1.09243584        0.000723
      1499         -1.09243589        0.000723
      1500         -1.09243590        0.000723
      1501         -1.09243597        0.000723
      1502         -1.09243597        0.000723
      1503         -1.09243600        0.000723
      1504         -1.09243602        0.000723
      1505         -1.09243602        0.000723
      1506         -1.09243602        0.000723
      1507         -1.09243602        0.000723
      1508         -1.09243603        0.000723
      1509         -1.09243603        0.000723
      1510         -1.09243610        0.000723
      1511         -1.09243615        0.000723
      1512         -1.09243619        0.000723
      1513         -1.09243621        0.000723
      1514         -1.09243623        0.000723
      1515         -1.09243628        0.000723
      1516         -1.09243628        0.000723
      1517         -1.09243628        0.000723
      1518         -1.09243634        0.000723
      1519         -1.09243638        0.000723
      1520         -1.09243638        0.000723
      1521         -1.09243640        0.000723
      1522         -1.09243645        0.000723
      1523         -1.09243645        0.000723
      1524         -1.09243646        0.000723
      1525         -1.09243646        0.000723
      1526         -1.09243647        0.000723
      1527         -1.09243648        0.000723
      1528         -1.09243655        0.000723
      1529         -1.09243661        0.000723
      1530         -1.09243662        0.000723
      1531         -1.09243663        0.000723
      1532         -1.09243669        0.000723
      1533         -1.09243669        0.000723
      1534         -1.09243672        0.000723
      1535         -1.09243674        0.000723
      1536         -1.09243677        0.000723
      1537         -1.09243677        0.000723
      1538         -1.09243677        0.000723
      1539         -1.09243681        0.000723
      1540         -1.09243688        0.000723
      1541         -1.09243696        0.000723
      1542         -1.09243700        0.000723
      1543         -1.09243704        0.000723
      1544         -1.09243704        0.000723
      1545         -1.09243707        0.000723
      1546         -1.09243709        0.000723
      1547         -1.09243709        0.000723
      1548         -1.09243715        0.000723
      1549         -1.09243717        0.000723
      1550         -1.09243720        0.000723
      1551         -1.09243724        0.000723
[...]
   6      -0.00000     0.00000     0.00000     0.00000
   7       0.00000     0.00000    -0.00000     0.00000
   8       0.00000     0.00000    -0.00000     0.00000
   9      -0.00000    -0.00000     0.00000     0.00000
  10      -0.00000     0.00000    -0.00000     0.00000

                  WFN1 Final alpha Correlation Function Analysis
                  ----------------------------------------------


 global array: Ca[1:10,1:10],  handle: -981 

                     1                       2                       3                       4                       5                       6  
       ----------------------- ----------------------- ----------------------- ----------------------- ----------------------- -----------------------
   1       0.99782,    0.00985    -0.05634,   -0.00877    -0.00467,   -0.00811     0.01182,   -0.00632     0.00456,   -0.00815    -0.01610,    0.00921
   2       0.03092,    0.04845     0.41891,    0.90398    -0.00168,   -0.03989    -0.01200,   -0.01381    -0.02217,    0.01138    -0.00352,    0.02610
   3       0.00995,    0.00628     0.02518,    0.01839     0.39012,    0.84556    -0.13434,   -0.33467    -0.00017,    0.02087    -0.00947,   -0.00529
   4       0.00444,    0.01129    -0.02868,   -0.00812    -0.34898,   -0.08938    -0.88968,   -0.27726     0.01547,   -0.00263    -0.00722,    0.00650
   5      -0.00914,    0.00160     0.00097,   -0.03244    -0.00228,   -0.00766    -0.00364,    0.00904    -0.53831,    0.33511    -0.65308,    0.40408
   6      -0.01268,   -0.00693     0.00084,    0.00579    -0.01056,   -0.00356     0.02242,    0.00514     0.60631,   -0.24039    -0.50304,    0.19846
   7       0.00882,   -0.00624    -0.02555,    0.01805    -0.01253,   -0.02219    -0.00112,    0.00773    -0.20591,    0.35243     0.17103,   -0.29057
   8       0.00805,    0.00418    -0.00387,   -0.00211    -0.00540,    0.00621     0.00398,   -0.00885     0.04820,    0.02769     0.03302,    0.01182
   9      -0.00752,    0.00855     0.00197,   -0.00149     0.00343,    0.00471    -0.00989,    0.01034     0.03079,   -0.02044     0.03682,   -0.01360
  10      -0.00204,   -0.00621     0.00440,    0.01093    -0.00852,    0.01915    -0.00597,    0.00247    -0.00668,    0.00575    -0.00809,   -0.00334

                     7                       8                       9                      10  
       ----------------------- ----------------------- ----------------------- -----------------------
   1       0.00547,    0.00202     0.00163,   -0.00001    -0.01447,    0.00316     0.00680,   -0.00194
   2      -0.01613,   -0.01961     0.00400,    0.00161     0.00325,    0.00325    -0.00616,   -0.00860
   3      -0.02242,    0.01423    -0.00630,    0.00254     0.00007,    0.00632    -0.01766,   -0.00398
   4      -0.00710,   -0.00130    -0.01059,    0.00179     0.00816,    0.00768     0.00665,   -0.01011
   5       0.00806,   -0.00973     0.04747,   -0.06417     0.01331,    0.00026    -0.00974,   -0.00573
   6      -0.49227,    0.18389     0.06456,   -0.01632    -0.00049,    0.02441     0.00096,    0.00983
   7      -0.43717,    0.71239     0.07366,   -0.11588     0.01584,    0.00746     0.01125,   -0.00194
   8       0.10613,   -0.00306     0.67688,    0.13379     0.69987,    0.13397     0.01329,    0.01151
   9       0.07334,   -0.08223     0.39234,   -0.58298    -0.39219,    0.57936    -0.03510,   -0.00891
  10       0.01459,   -0.00352     0.01277,   -0.01144    -0.03572,   -0.00045     0.53575,    0.84283

                   WFN1 Final beta Correlation Function Analysis
                   ---------------------------------------------


 global array: Cb[1:10,1:10],  handle: -980 

                     1                       2                       3                       4                       5                       6  
       ----------------------- ----------------------- ----------------------- ----------------------- ----------------------- -----------------------
   1       0.99782,    0.00985    -0.05634,   -0.00877    -0.00467,   -0.00811     0.01182,   -0.00632     0.00456,   -0.00815    -0.01610,    0.00921
   2       0.03092,    0.04845     0.41891,    0.90398    -0.00168,   -0.03989    -0.01200,   -0.01381    -0.02217,    0.01138    -0.00352,    0.02610
   3       0.00995,    0.00628     0.02518,    0.01839     0.39012,    0.84556    -0.13434,   -0.33467    -0.00017,    0.02087    -0.00947,   -0.00529
   4       0.00444,    0.01129    -0.02868,   -0.00812    -0.34898,   -0.08938    -0.88968,   -0.27726     0.01547,   -0.00263    -0.00722,    0.00650
   5      -0.00914,    0.00160     0.00097,   -0.03244    -0.00228,   -0.00766    -0.00364,    0.00904    -0.53831,    0.33511    -0.65308,    0.40408
   6      -0.01268,   -0.00693     0.00084,    0.00579    -0.01056,   -0.00356     0.02242,    0.00514     0.60631,   -0.24039    -0.50304,    0.19846
   7       0.00882,   -0.00624    -0.02555,    0.01805    -0.01253,   -0.02219    -0.00112,    0.00773    -0.20591,    0.35243     0.17103,   -0.29057
   8       0.00805,    0.00418    -0.00387,   -0.00211    -0.00540,    0.00621     0.00398,   -0.00885     0.04820,    0.02769     0.03302,    0.01182
   9      -0.00752,    0.00855     0.00197,   -0.00149     0.00343,    0.00471    -0.00989,    0.01034     0.03079,   -0.02044     0.03682,   -0.01360
  10      -0.00204,   -0.00621     0.00440,    0.01093    -0.00852,    0.01915    -0.00597,    0.00247    -0.00668,    0.00575    -0.00809,   -0.00334

                     7                       8                       9                      10  
       ----------------------- ----------------------- ----------------------- -----------------------
   1       0.00547,    0.00202     0.00163,   -0.00001    -0.01447,    0.00316     0.00680,   -0.00194
   2      -0.01613,   -0.01961     0.00400,    0.00161     0.00325,    0.00325    -0.00616,   -0.00860
   3      -0.02242,    0.01423    -0.00630,    0.00254     0.00007,    0.00632    -0.01766,   -0.00398
   4      -0.00710,   -0.00130    -0.01059,    0.00179     0.00816,    0.00768     0.00665,   -0.01011
   5       0.00806,   -0.00973     0.04747,   -0.06417     0.01331,    0.00026    -0.00974,   -0.00573
   6      -0.49227,    0.18389     0.06456,   -0.01632    -0.00049,    0.02441     0.00096,    0.00983
   7      -0.43717,    0.71239     0.07366,   -0.11588     0.01584,    0.00746     0.01125,   -0.00194
   8       0.10613,   -0.00306     0.67688,    0.13379     0.69987,    0.13397     0.01329,    0.01151
   9       0.07334,   -0.08223     0.39234,   -0.58298    -0.39219,    0.57936    -0.03510,   -0.00891
  10       0.01459,   -0.00352     0.01277,   -0.01144    -0.03572,   -0.00045     0.53575,    0.84283

                     WFN1 Final Alpha Natural Orbital Analysis
                     -----------------------------------------

 Vector    1  Occ=9.957443D-01  E= 0.000000D+00
              MO Center= -2.5D-06,  7.1D-06, -1.8D-04, r^2= 9.5D-01
   Bfn.  Coefficient  Atom+Function         Bfn.  Coefficient  Atom+Function  
  ----- ------------  ---------------      ----- ------------  ---------------
     2      0.340857  1 H  s                  7      0.340460  2 H  s          
     1      0.278575  1 H  s                  6      0.278599  2 H  s          

 Vector    2  Occ=3.303718D-03  E= 0.000000D+00
              MO Center= -1.0D-03, -4.1D-04, -5.3D-03, r^2= 1.4D+00
   Bfn.  Coefficient  Atom+Function         Bfn.  Coefficient  Atom+Function  
  ----- ------------  ---------------      ----- ------------  ---------------
     2     -0.820888  1 H  s                  7      0.818776  2 H  s          
     1     -0.386547  1 H  s                  6      0.387829  2 H  s          
     5      0.062193  1 H  pz                10      0.055274  2 H  pz         

 Vector    3  Occ=1.384605D-04  E= 0.000000D+00
              MO Center=  1.9D-04,  4.4D-05,  3.6D-02, r^2= 1.6D+00
   Bfn.  Coefficient  Atom+Function         Bfn.  Coefficient  Atom+Function  
  ----- ------------  ---------------      ----- ------------  ---------------
     6     -0.864616  2 H  s                  1     -0.833112  1 H  s          
     7      0.728738  2 H  s                  2      0.650558  1 H  s          
     5     -0.094561  1 H  pz                10      0.069706  2 H  pz         

 Vector    4  Occ=1.471227D-04  E= 0.000000D+00
              MO Center=  5.7D-04, -4.8D-04, -2.4D-02, r^2= 2.0D+00
   Bfn.  Coefficient  Atom+Function         Bfn.  Coefficient  Atom+Function  
  ----- ------------  ---------------      ----- ------------  ---------------
     2      1.472815  1 H  s                  7     -1.447304  2 H  s          
     1     -0.888157  1 H  s                  6      0.862968  2 H  s          
    10      0.098452  2 H  pz                 5      0.067268  1 H  pz         

 Vector    5  Occ=8.616651D-05  E= 0.000000D+00
              MO Center= -5.5D-06, -1.7D-05, -8.4D-03, r^2= 5.7D-01
   Bfn.  Coefficient  Atom+Function         Bfn.  Coefficient  Atom+Function  
  ----- ------------  ---------------      ----- ------------  ---------------
     4     -0.635967  1 H  py                 9     -0.627962  2 H  py         
     3     -0.228985  1 H  px                 8     -0.215714  2 H  px         

 Vector    6  Occ=2.087398D-04  E= 0.000000D+00
              MO Center= -5.2D-05,  1.9D-05, -2.0D-06, r^2= 5.7D-01
   Bfn.  Coefficient  Atom+Function         Bfn.  Coefficient  Atom+Function  
  ----- ------------  ---------------      ----- ------------  ---------------
     3     -0.636532  1 H  px                 8     -0.627343  2 H  px         
     9      0.235408  2 H  py                 4      0.209348  1 H  py         

 Vector    7  Occ=1.166946D-04  E= 0.000000D+00
              MO Center= -1.6D-04, -6.1D-05, -8.6D-03, r^2= 6.5D-01
   Bfn.  Coefficient  Atom+Function         Bfn.  Coefficient  Atom+Function  
  ----- ------------  ---------------      ----- ------------  ---------------
     5      0.614504  1 H  pz                10     -0.604804  2 H  pz         
     1     -0.315443  1 H  s                  6     -0.281953  2 H  s          
     2      0.167391  1 H  s                  7      0.090402  2 H  s          

 Vector    8  Occ=8.228091D-05  E= 0.000000D+00
              MO Center=  9.4D-04,  2.7D-03,  8.3D-03, r^2= 6.3D-01
   Bfn.  Coefficient  Atom+Function         Bfn.  Coefficient  Atom+Function  
  ----- ------------  ---------------      ----- ------------  ---------------
     4      0.709211  1 H  py                 9     -0.711317  2 H  py         
     8     -0.256591  2 H  px                 3      0.229850  1 H  px         

 Vector    9  Occ=1.296813D-04  E= 0.000000D+00
              MO Center=  5.0D-04, -1.7D-04,  2.9D-04, r^2= 6.3D-01
   Bfn.  Coefficient  Atom+Function         Bfn.  Coefficient  Atom+Function  
  ----- ------------  ---------------      ----- ------------  ---------------
     3      0.708669  1 H  px                 8     -0.711981  2 H  px         
     4     -0.247432  1 H  py                 9      0.238954  2 H  py         

 Vector   10  Occ=4.278973D-05  E= 0.000000D+00
              MO Center= -9.6D-04, -1.6D-03,  1.9D-03, r^2= 6.9D-01
   Bfn.  Coefficient  Atom+Function         Bfn.  Coefficient  Atom+Function  
  ----- ------------  ---------------      ----- ------------  ---------------
    10     -1.000289  2 H  pz                 5     -0.994445  1 H  pz         
     2     -0.354465  1 H  s                  7      0.340736  2 H  s          
     6      0.303151  2 H  s                  1     -0.287200  1 H  s          


                     WFN1 Final Beta Natural Orbital Analysis
                     ----------------------------------------

 Vector    1  Occ=9.957443D-01  E= 0.000000D+00
              MO Center= -2.5D-06,  7.1D-06, -1.8D-04, r^2= 9.5D-01
   Bfn.  Coefficient  Atom+Function         Bfn.  Coefficient  Atom+Function  
  ----- ------------  ---------------      ----- ------------  ---------------
     2      0.340857  1 H  s                  7      0.340460  2 H  s          
     1      0.278575  1 H  s                  6      0.278599  2 H  s          

 Vector    2  Occ=3.303718D-03  E= 0.000000D+00
              MO Center= -1.0D-03, -4.1D-04, -5.3D-03, r^2= 1.4D+00
   Bfn.  Coefficient  Atom+Function         Bfn.  Coefficient  Atom+Function  
  ----- ------------  ---------------      ----- ------------  ---------------
     2     -0.820888  1 H  s                  7      0.818776  2 H  s          
     1     -0.386547  1 H  s                  6      0.387829  2 H  s          
     5      0.062193  1 H  pz                10      0.055274  2 H  pz         

 Vector    3  Occ=1.384605D-04  E= 0.000000D+00
              MO Center=  1.9D-04,  4.4D-05,  3.6D-02, r^2= 1.6D+00
   Bfn.  Coefficient  Atom+Function         Bfn.  Coefficient  Atom+Function  
  ----- ------------  ---------------      ----- ------------  ---------------
     6     -0.864616  2 H  s                  1     -0.833112  1 H  s          
     7      0.728738  2 H  s                  2      0.650558  1 H  s          
     5     -0.094561  1 H  pz                10      0.069706  2 H  pz         

 Vector    4  Occ=1.471227D-04  E= 0.000000D+00
              MO Center=  5.7D-04, -4.8D-04, -2.4D-02, r^2= 2.0D+00
   Bfn.  Coefficient  Atom+Function         Bfn.  Coefficient  Atom+Function  
  ----- ------------  ---------------      ----- ------------  ---------------
     2      1.472815  1 H  s                  7     -1.447304  2 H  s          
     1     -0.888157  1 H  s                  6      0.862968  2 H  s          
    10      0.098452  2 H  pz                 5      0.067268  1 H  pz         

 Vector    5  Occ=8.616651D-05  E= 0.000000D+00
              MO Center= -5.5D-06, -1.7D-05, -8.4D-03, r^2= 5.7D-01
   Bfn.  Coefficient  Atom+Function         Bfn.  Coefficient  Atom+Function  
  ----- ------------  ---------------      ----- ------------  ---------------
     4     -0.635967  1 H  py                 9     -0.627962  2 H  py         
     3     -0.228985  1 H  px                 8     -0.215714  2 H  px         

 Vector    6  Occ=2.087398D-04  E= 0.000000D+00
              MO Center= -5.2D-05,  1.9D-05, -2.0D-06, r^2= 5.7D-01
   Bfn.  Coefficient  Atom+Function         Bfn.  Coefficient  Atom+Function  
  ----- ------------  ---------------      ----- ------------  ---------------
     3     -0.636532  1 H  px                 8     -0.627343  2 H  px         
     9      0.235408  2 H  py                 4      0.209348  1 H  py         

 Vector    7  Occ=1.166946D-04  E= 0.000000D+00
              MO Center= -1.6D-04, -6.1D-05, -8.6D-03, r^2= 6.5D-01
   Bfn.  Coefficient  Atom+Function         Bfn.  Coefficient  Atom+Function  
  ----- ------------  ---------------      ----- ------------  ---------------
     5      0.614504  1 H  pz                10     -0.604804  2 H  pz         
     1     -0.315443  1 H  s                  6     -0.281953  2 H  s          
     2      0.167391  1 H  s                  7      0.090402  2 H  s          

 Vector    8  Occ=8.228091D-05  E= 0.000000D+00
              MO Center=  9.4D-04,  2.7D-03,  8.3D-03, r^2= 6.3D-01
   Bfn.  Coefficient  Atom+Function         Bfn.  Coefficient  Atom+Function  
  ----- ------------  ---------------      ----- ------------  ---------------
     4      0.709211  1 H  py                 9     -0.711317  2 H  py         
     8     -0.256591  2 H  px                 3      0.229850  1 H  px         

 Vector    9  Occ=1.296813D-04  E= 0.000000D+00
              MO Center=  5.0D-04, -1.7D-04,  2.9D-04, r^2= 6.3D-01
   Bfn.  Coefficient  Atom+Function         Bfn.  Coefficient  Atom+Function  
  ----- ------------  ---------------      ----- ------------  ---------------
     3      0.708669  1 H  px                 8     -0.711981  2 H  px         
     4     -0.247432  1 H  py                 9      0.238954  2 H  py         

 Vector   10  Occ=4.278973D-05  E= 0.000000D+00
              MO Center= -9.6D-04, -1.6D-03,  1.9D-03, r^2= 6.9D-01
   Bfn.  Coefficient  Atom+Function         Bfn.  Coefficient  Atom+Function  
  ----- ------------  ---------------      ----- ------------  ---------------
    10     -1.000289  2 H  pz                 5     -0.994445  1 H  pz         
     2     -0.354465  1 H  s                  7      0.340736  2 H  s          
     6      0.303151  2 H  s                  1     -0.287200  1 H  s          


 Task  times  cpu:     3322.0s     wall:     4888.0s
 Summary of allocated global arrays
-----------------------------------
  No active global arrays



                         GA Statistics for process    0
                         ------------------------------

       create   destroy   get      put      acc     scatter   gather  read&inc
calls:   44       44     8.80e+08 3.78e+05 5.02e+05    0        0       11     
number of processes/call 1.00e+00 1.00e+00 1.00e+00 0.00e+00 0.00e+00
bytes total:             7.04e+11 4.01e+08 5.02e+08 0.00e+00 0.00e+00 8.80e+01
bytes remote:            0.00e+00 0.00e+00 0.00e+00 0.00e+00 0.00e+00 0.00e+00
Max memory consumed for GA by this process: 268000 bytes
MA_summarize_allocated_blocks: starting scan ...
MA_summarize_allocated_blocks: scan completed: 0 heap blocks, 0 stack blocks
MA usage statistics:

	allocation statistics:
					      heap	     stack
					      ----	     -----
	current number of blocks	         0	         0
	maximum number of blocks	        19	        17
	current total bytes		         0	         0
	maximum total bytes		   3205416	  22508616
	maximum total K-bytes		      3206	     22509
	maximum total M-bytes		         4	        23


                                NWChem Input Module
                                -------------------





                                     CITATION
                                     --------
                Please cite the following reference when publishing
                           results obtained with NWChem:

                 M. Valiev, E.J. Bylaska, N. Govind, K. Kowalski,
              T.P. Straatsma, H.J.J. van Dam, D. Wang, J. Nieplocha,
                        E. Apra, T.L. Windus, W.A. de Jong
                 "NWChem: a comprehensive and scalable open-source
                  solution for large scale molecular simulations"
                      Comput. Phys. Commun. 181, 1477 (2010)
                           doi:10.1016/j.cpc.2010.04.018

                                      AUTHORS
                                      -------
          E. Apra, E. J. Bylaska, W. A. de Jong, N. Govind, K. Kowalski,
       T. P. Straatsma, M. Valiev, H. J. J. van Dam, D. Wang, T. L. Windus,
        J. Hammond, J. Autschbach, K. Bhaskaran-Nair, J. Brabec, K. Lopata,
    S. A. Fischer, S. Krishnamoorthy, M. Jacquelin, W. Ma, M. Klemm, O. Villa,
      Y. Chen, V. Anisimov, F. Aquino, S. Hirata, M. T. Hackler, V. Konjkov,
      T. Risthaus, M. Malagoli, A. Marenich, A. Otero-de-la-Roza, J. Mullin,
        P. Nichols, R. Peverati, J. Pittner, Y. Zhao, P.-D. Fan, A. Fonari,
       M. Williamson, R. J. Harrison, J. R. Rehr, M. Dupuis, D. Silverstein,
    D. M. A. Smith, J. Nieplocha, V. Tipparaju, M. Krishnan, B. E. Van Kuiken,
        A. Vazquez-Mayagoitia, L. Jensen, M. Swart, Q. Wu, T. Van Voorhis,
     A. A. Auer, M. Nooijen, L. D. Crosby, E. Brown, G. Cisneros, G. I. Fann,
   H. Fruchtl, J. Garza, K. Hirao, R. A. Kendall, J. A. Nichols, K. Tsemekhman,
    K. Wolinski, J. Anchell, D. E. Bernholdt, P. Borowski, T. Clark, D. Clerc,
   H. Dachsel, M. J. O. Deegan, K. Dyall, D. Elwood, E. Glendening, M. Gutowski,
   A. C. Hess, J. Jaffe, B. G. Johnson, J. Ju, R. Kobayashi, R. Kutteh, Z. Lin,
   R. Littlefield, X. Long, B. Meng, T. Nakajima, S. Niu, L. Pollack, M. Rosing,
   K. Glaesemann, G. Sandrone, M. Stave, H. Taylor, G. Thomas, J. H. van Lenthe,
                               A. T. Wong, Z. Zhang.

 Total times  cpu:     3322.0s     wall:     4888.0s
