 argument  1 = input-wf.nw



============================== echo of input deck ==============================
echo
start wfn1_dat
geometry units au noautoz
  H 0 0 -.89434600000000000000
  H 0 0  .89434600000000000000
  symmetry cs
end
basis
  H library 6-31g**
end
set wfn1:input_vectors "atomic"
set wfn1:solver "monte-carlo"
set wfn1:print_error F
set wfn1:t_initial 0.1
#set wfn1:corr_expr "wfn1_mx"
set wfn1:corr_expr "wfn1c"
set wfn1:t_bath 0.0
set wfn1:maxit  20000
task wfn1 energy
================================================================================


                                         
                                         


              Northwest Computational Chemistry Package (NWChem) 6.8
              ------------------------------------------------------


                    Environmental Molecular Sciences Laboratory
                       Pacific Northwest National Laboratory
                                Richland, WA 99352

                              Copyright (c) 1994-2015
                       Pacific Northwest National Laboratory
                            Battelle Memorial Institute

             NWChem is an open-source computational chemistry package
                        distributed under the terms of the
                      Educational Community License (ECL) 2.0
             A copy of the license is included with this distribution
                              in the LICENSE.TXT file

                                  ACKNOWLEDGMENT
                                  --------------

            This software and its documentation were developed at the
            EMSL at Pacific Northwest National Laboratory, a multiprogram
            national laboratory, operated for the U.S. Department of Energy
            by Battelle under Contract Number DE-AC05-76RL01830. Support
            for this work was provided by the Department of Energy Office
            of Biological and Environmental Research, Office of Basic
            Energy Sciences, and the Office of Advanced Scientific Computing.


           Job information
           ---------------

    hostname        = erato
    program         = ../../../bin/LINUX64/nwchem
    date            = Mon Mar  1 10:16:18 2021

    compiled        = Sun_Feb_28_18:02:42_2021
    source          = /home/hvandam/nwchem-1-wfn1
    nwchem branch   = Development
    nwchem revision = nwchem_on_git-124-gad72d19fff205e319ffbbf2bca37a04ded6ad57b
    ga revision     = nwchem_on_git-124-gad72d19
    use scalapack   = F
    input           = input-wf.nw
    prefix          = wfn1_dat.
    data base       = ./wfn1_dat.db
    status          = startup
    nproc           =        1
    time left       =     -1s



           Memory information
           ------------------

    heap     =   13107198 doubles =    100.0 Mbytes
    stack    =   13107195 doubles =    100.0 Mbytes
    global   =   26214400 doubles =    200.0 Mbytes (distinct from heap & stack)
    total    =   52428793 doubles =    400.0 Mbytes
    verify   = yes
    hardfail = no 


           Directory information
           ---------------------

  0 permanent = .
  0 scratch   = .




                                NWChem Input Module
                                -------------------


 Turning off AUTOSYM since
 SYMMETRY directive was detected!



                             Geometry "geometry" -> ""
                             -------------------------

 Output coordinates in a.u. (scale by  1.000000000 to convert to a.u.)

  No.       Tag          Charge          X              Y              Z
 ---- ---------------- ---------- -------------- -------------- --------------
    1 H                    1.0000     0.00000000     0.00000000    -0.89434600
    2 H                    1.0000     0.00000000     0.00000000     0.89434600

      Atomic Mass 
      ----------- 

      H                  1.007825


 Effective nuclear repulsion energy (a.u.)       0.5590677434

            Nuclear Dipole moment (a.u.) 
            ----------------------------
        X                 Y               Z
 ---------------- ---------------- ----------------
     0.0000000000     0.0000000000     0.0000000000

      Symmetry information
      --------------------

 Group name             Cs        
 Group number              2
 Group order               2
 No. of unique centers     1

      Symmetry unique atoms

     1


            XYZ format geometry
            -------------------
     2
 geometry
 H                     0.00000000     0.00000000    -0.47326756
 H                     0.00000000     0.00000000     0.47326756

                      Basis "ao basis" -> "" (cartesian)
                      -----
  H (Hydrogen)
  ------------
            Exponent  Coefficients 
       -------------- ---------------------------------------------------------
  1 S  1.87311370E+01  0.033495
  1 S  2.82539370E+00  0.234727
  1 S  6.40121700E-01  0.813757

  2 S  1.61277800E-01  1.000000

  3 P  1.10000000E+00  1.000000



 Summary of "ao basis" -> "" (cartesian)
 ------------------------------------------------------------------------------
       Tag                 Description            Shells   Functions and Types
 ---------------- ------------------------------  ------  ---------------------
 H                          6-31g**                  3        5   2s1p



                                NWChem WFN1 Module
                                ------------------



          No. of electrons :     2
           Alpha electrons :     1
            Beta electrons :     1
          Charge           :     0
          Spin multiplicity:     1

 HvD: wfn1_inpdft
 HvD: nquad_task =                     1
 HvD: iangquad   =                     0
 HvD: gridtype   = user      
 HvD: leb        =  T
 HvD: radgrid    = murakn    
 HvD: trunc_neigh=  T
 HvD: lssw       =  T
 HvD: whichssw   = erf1    
 HvD: mxnrad     =                     0
 HvD: mxnang     =                     0
 HVD: wfn1: movecs_in  = atomic                                                                                                                                                                                                                                                          
 HVD: wfn1: movecs_out = ./wfn1_dat.movecs                                                                                                                                                                                                                                               

      Superposition of Atomic Density Guess
      -------------------------------------

 Sum of atomic energies:          -0.99646508

      Non-variational initial energy
      ------------------------------

 Total energy =      -0.816263
 1-e energy   =      -2.030607
 2-e energy   =       0.655277
 HOMO         =      -0.492072
 LUMO         =       0.115408

 iteration              energy           error
 ---------              ------           -----
         0         -1.10838563        0.200000
         1         -1.10848026        0.200000
         2         -1.10863844        0.200000
         3         -1.10873099        0.136079
         4         -1.10873916        0.125992
         5         -1.10879748        0.108006
         6         -1.10880834        0.108006
         7         -1.10881264        0.092587
         8         -1.10881430        0.079370
         9         -1.10905211        0.073487
        10         -1.10936559        0.073487
        11         -1.10936966        0.068040
        12         -1.10942897        0.050000
        13         -1.10944072        0.050000
        14         -1.10947448        0.050000
        15         -1.10951855        0.039685
        16         -1.10960680        0.036743
        17         -1.10961027        0.034020
        18         -1.10962124        0.034020
        19         -1.10962733        0.034020
        20         -1.10968153        0.034020
        21         -1.10973291        0.021431
        22         -1.10973856        0.021431
        23         -1.10980592        0.021431
        24         -1.10983813        0.021431
        25         -1.10985883        0.019843
        26         -1.10988988        0.018372
        27         -1.10989429        0.017010
        28         -1.11001207        0.017010
        29         -1.11002343        0.013501
        30         -1.11002640        0.009186
        31         -1.11005977        0.009186
        32         -1.11005986        0.004593
        33         -1.11006201        0.004593
        34         -1.11007558        0.001563
        35         -1.11009978        0.001339
        36         -1.11010578        0.001148
        37         -1.11011690        0.000335
        38         -1.11012236        0.000266
        39         -1.11012613        0.000211
        40         -1.11012679        0.000114
        41         -1.11012899        0.000114
        42         -1.11012910        0.000066
        43         -1.11012979        0.000066
        44         -1.11013061        0.000066
        45         -1.11013514        0.000042
        46         -1.11013673        0.000031
        47         -1.11013840        0.000028
        48         -1.11013896        0.000017
        49         -1.11013908        0.000008
        50         -1.11013971        0.000007
        51         -1.11013973        0.000007
        52         -1.11014011        0.000005
        53         -1.11014196        0.000005
        54         -1.11014212        0.000004
        55         -1.11014242        0.000004
        56         -1.11014308        0.000002
        57         -1.11014312        0.000002
        58         -1.11014313        0.000001

 Reached Convergence

 WFN1                     :
 --------------------------
 Total WFN1 energy  =          -1.1101431287
 1-Electron energy  =          -2.2546437813
 2-Electron energy  =           0.5896740716
 Correlation energy =          -0.0042411624
 DFT XC energy      =           0.0000000000
 Entropy energy     =           0.0000000000
 Nuclear energy     =           0.5590677434

 conventional Hartree-Fock:
 --------------------------
 Total SCF energy  =          -1.1083416335
 2-Electron energy =           0.5914755668

                WFN1 Final Natural orbital energies and occupations
                ---------------------------------------------------

              Alpha       Beta            Alpha       Beta  
            --------    --------        --------    --------
       1      0.0000      0.0000          0.9976      0.9976
       2      0.0000      0.0000          0.0021      0.0021
       3      0.0000      0.0000          0.0000      0.0000
       4      0.0000      0.0000          0.0002      0.0002
       5      0.0000      0.0000          0.0000      0.0000
       6      0.0000      0.0000          0.0000      0.0000
       7      0.0000      0.0000          0.0001      0.0001
       8      0.0000      0.0000          0.0000      0.0000
       9      0.0000      0.0000          0.0000      0.0000
      10      0.0000      0.0000          0.0000      0.0000

             WFN1 Final Correlation function energies and occupations
             --------------------------------------------------------

              Alpha       Beta            Alpha       Beta  
            --------    --------        --------    --------
       1      0.0000      0.0000          1.0000      1.0000
       2      0.0000      0.0000          0.0000      0.0000
       3      0.0000      0.0000          0.0000      0.0000
       4      0.0000      0.0000          0.0000      0.0000
       5      0.0000      0.0000          0.0000      0.0000
       6      0.0000      0.0000          0.0000      0.0000
       7      0.0000      0.0000          0.0000      0.0000
       8      0.0000      0.0000          0.0000      0.0000
       9      0.0000      0.0000          0.0000      0.0000
      10      0.0000      0.0000          0.0000      0.0000

                WFN1 Final alpha-alpha 2-matrix occupation numbers
                --------------------------------------------------


 global array: g_momo1[1:10,1:10],  handle: -990 

            1           2           3           4           5           6  
       ----------- ----------- ----------- ----------- ----------- -----------
   1       0.00000    -0.00000     0.00000     0.00000     0.00000     0.00000
   2       0.00000     0.00000     0.00000     0.00000    -0.00000     0.00000
   3       0.00000    -0.00000     0.00000     0.00000    -0.00000     0.00000
   4       0.00000    -0.00000     0.00000     0.00000     0.00000     0.00000
   5       0.00000    -0.00000    -0.00000     0.00000    -0.00000     0.00000
   6       0.00000    -0.00000     0.00000    -0.00000     0.00000     0.00000
   7      -0.00000    -0.00000    -0.00000     0.00000     0.00000     0.00000
   8       0.00000     0.00000     0.00000     0.00000     0.00000     0.00000
   9       0.00000    -0.00000     0.00000     0.00000     0.00000     0.00000
  10       0.00000    -0.00000     0.00000     0.00000    -0.00000     0.00000

            7           8           9          10  
       ----------- ----------- ----------- -----------
   1       0.00000     0.00000    -0.00000     0.00000
   2      -0.00000     0.00000    -0.00000     0.00000
   3       0.00000     0.00000     0.00000     0.00000
   4       0.00000     0.00000    -0.00000     0.00000
   5       0.00000     0.00000    -0.00000    -0.00000
   6      -0.00000     0.00000    -0.00000     0.00000
   7       0.00000     0.00000    -0.00000     0.00000
   8      -0.00000     0.00000    -0.00000    -0.00000
   9       0.00000     0.00000    -0.00000    -0.00000
  10       0.00000     0.00000    -0.00000     0.00000

                 WFN1 Final beta-beta 2-matrix occupation numbers
                 ------------------------------------------------


 global array: g_momo2[1:10,1:10],  handle: -989 

            1           2           3           4           5           6  
       ----------- ----------- ----------- ----------- ----------- -----------
   1       0.00000    -0.00000     0.00000     0.00000     0.00000     0.00000
   2       0.00000     0.00000     0.00000     0.00000    -0.00000     0.00000
   3       0.00000    -0.00000     0.00000     0.00000    -0.00000     0.00000
   4       0.00000    -0.00000     0.00000     0.00000     0.00000     0.00000
   5       0.00000    -0.00000    -0.00000     0.00000    -0.00000     0.00000
   6       0.00000    -0.00000     0.00000    -0.00000     0.00000     0.00000
   7      -0.00000    -0.00000    -0.00000     0.00000     0.00000     0.00000
   8       0.00000     0.00000     0.00000     0.00000     0.00000     0.00000
   9       0.00000    -0.00000     0.00000     0.00000     0.00000     0.00000
  10       0.00000    -0.00000     0.00000     0.00000    -0.00000     0.00000

            7           8           9          10  
       ----------- ----------- ----------- -----------
   1       0.00000     0.00000    -0.00000     0.00000
   2      -0.00000     0.00000    -0.00000     0.00000
   3       0.00000     0.00000     0.00000     0.00000
   4       0.00000     0.00000    -0.00000     0.00000
   5       0.00000     0.00000    -0.00000    -0.00000
   6      -0.00000     0.00000    -0.00000     0.00000
   7       0.00000     0.00000    -0.00000     0.00000
   8      -0.00000     0.00000    -0.00000    -0.00000
   9       0.00000     0.00000    -0.00000    -0.00000
  10       0.00000     0.00000    -0.00000     0.00000

                  WFN1 Final alpha Correlation Function Analysis
                  ----------------------------------------------


 global array: Ca[1:10,1:10],  handle: -981 

                     1                       2                       3                       4                       5                       6  
       ----------------------- ----------------------- ----------------------- ----------------------- ----------------------- -----------------------
   1       0.91060,    0.41031    -0.03547,   -0.02914    -0.00023,   -0.00202     0.01173,   -0.00572    -0.00267,   -0.00381     0.00292,    0.00516
   2      -0.02415,    0.03895    -0.72857,    0.68220     0.01929,   -0.01957     0.00728,    0.00199     0.01599,   -0.00823     0.01213,   -0.00025
   3       0.00359,   -0.00202     0.02152,   -0.01412     0.75288,   -0.60856    -0.20032,    0.14364     0.00727,   -0.00773     0.00483,    0.00856
   4       0.01206,   -0.00438     0.00287,    0.01169    -0.05208,    0.24132    -0.25857,    0.93312     0.00501,   -0.01849    -0.00124,   -0.00474
   5       0.00000,    0.00000    -0.01243,    0.01618    -0.00018,   -0.00714    -0.01591,    0.00616    -0.63081,    0.29107    -0.65172,    0.29978
   6       0.00003,    0.00598    -0.00753,    0.00263     0.00967,    0.00117    -0.00594,    0.00990    -0.43907,    0.54997     0.42586,   -0.53168
   7       0.00875,   -0.00039    -0.00118,   -0.01139    -0.00518,   -0.00067     0.00708,    0.00906     0.13872,    0.03661    -0.13461,   -0.03252
   8      -0.00000,    0.00000     0.00686,   -0.00141    -0.00755,   -0.02308    -0.00572,    0.00488     0.01592,   -0.01778     0.00670,   -0.02410
   9      -0.00010,    0.00431     0.01261,   -0.00171    -0.00081,    0.01383     0.00633,   -0.02733     0.00811,    0.00142     0.02788,   -0.01858
  10      -0.00530,    0.00211    -0.00243,   -0.00681    -0.00412,   -0.01156     0.00226,   -0.00533    -0.00760,   -0.00330     0.01050,   -0.00401

                     7                       8                       9                      10  
       ----------------------- ----------------------- ----------------------- -----------------------
   1      -0.00698,   -0.00338     0.00010,    0.00308     0.00178,   -0.00255    -0.00059,   -0.00524
   2       0.00619,    0.00958     0.00599,   -0.01071    -0.00865,   -0.00103     0.00158,   -0.00685
   3       0.00252,   -0.00127    -0.00980,    0.01110    -0.02550,   -0.01306    -0.00378,    0.01012
   4      -0.00239,   -0.00502     0.02147,    0.00805    -0.01206,   -0.00011    -0.00657,   -0.00510
   5       0.00699,   -0.00262     0.04126,   -0.00440     0.00234,   -0.01361    -0.00138,   -0.00529
   6       0.10996,   -0.16132    -0.03743,    0.02721     0.00677,   -0.00379     0.00778,   -0.00282
   7       0.94519,    0.18131    -0.18006,   -0.02208     0.00121,   -0.01192    -0.01297,   -0.01999
   8       0.06304,   -0.11295     0.34005,   -0.59104     0.35577,   -0.62423     0.00974,    0.00921
   9       0.12929,    0.03818     0.69366,    0.12693    -0.68306,   -0.12499    -0.00169,   -0.00399
  10      -0.02082,    0.00341     0.00396,   -0.00841     0.00620,   -0.00966    -0.82984,   -0.55698

                   WFN1 Final beta Correlation Function Analysis
                   ---------------------------------------------


 global array: Cb[1:10,1:10],  handle: -980 

                     1                       2                       3                       4                       5                       6  
       ----------------------- ----------------------- ----------------------- ----------------------- ----------------------- -----------------------
   1       0.91060,    0.41031    -0.03547,   -0.02914    -0.00023,   -0.00202     0.01173,   -0.00572    -0.00267,   -0.00381     0.00292,    0.00516
   2      -0.02415,    0.03895    -0.72857,    0.68220     0.01929,   -0.01957     0.00728,    0.00199     0.01599,   -0.00823     0.01213,   -0.00025
   3       0.00359,   -0.00202     0.02152,   -0.01412     0.75288,   -0.60856    -0.20032,    0.14364     0.00727,   -0.00773     0.00483,    0.00856
   4       0.01206,   -0.00438     0.00287,    0.01169    -0.05208,    0.24132    -0.25857,    0.93312     0.00501,   -0.01849    -0.00124,   -0.00474
   5       0.00000,    0.00000    -0.01243,    0.01618    -0.00018,   -0.00714    -0.01591,    0.00616    -0.63081,    0.29107    -0.65172,    0.29978
   6       0.00003,    0.00598    -0.00753,    0.00263     0.00967,    0.00117    -0.00594,    0.00990    -0.43907,    0.54997     0.42586,   -0.53168
   7       0.00875,   -0.00039    -0.00118,   -0.01139    -0.00518,   -0.00067     0.00708,    0.00906     0.13872,    0.03661    -0.13461,   -0.03252
   8      -0.00000,    0.00000     0.00686,   -0.00141    -0.00755,   -0.02308    -0.00572,    0.00488     0.01592,   -0.01778     0.00670,   -0.02410
   9      -0.00010,    0.00431     0.01261,   -0.00171    -0.00081,    0.01383     0.00633,   -0.02733     0.00811,    0.00142     0.02788,   -0.01858
  10      -0.00530,    0.00211    -0.00243,   -0.00681    -0.00412,   -0.01156     0.00226,   -0.00533    -0.00760,   -0.00330     0.01050,   -0.00401

                     7                       8                       9                      10  
       ----------------------- ----------------------- ----------------------- -----------------------
   1      -0.00698,   -0.00338     0.00010,    0.00308     0.00178,   -0.00255    -0.00059,   -0.00524
   2       0.00619,    0.00958     0.00599,   -0.01071    -0.00865,   -0.00103     0.00158,   -0.00685
   3       0.00252,   -0.00127    -0.00980,    0.01110    -0.02550,   -0.01306    -0.00378,    0.01012
   4      -0.00239,   -0.00502     0.02147,    0.00805    -0.01206,   -0.00011    -0.00657,   -0.00510
   5       0.00699,   -0.00262     0.04126,   -0.00440     0.00234,   -0.01361    -0.00138,   -0.00529
   6       0.10996,   -0.16132    -0.03743,    0.02721     0.00677,   -0.00379     0.00778,   -0.00282
   7       0.94519,    0.18131    -0.18006,   -0.02208     0.00121,   -0.01192    -0.01297,   -0.01999
   8       0.06304,   -0.11295     0.34005,   -0.59104     0.35577,   -0.62423     0.00974,    0.00921
   9       0.12929,    0.03818     0.69366,    0.12693    -0.68306,   -0.12499    -0.00169,   -0.00399
  10      -0.02082,    0.00341     0.00396,   -0.00841     0.00620,   -0.00966    -0.82984,   -0.55698

                     WFN1 Final Alpha Natural Orbital Analysis
                     -----------------------------------------

 Vector    1  Occ=9.975545D-01  E= 0.000000D+00
              MO Center= -2.3D-03,  5.0D-04, -2.7D-03, r^2= 8.7D-01
   Bfn.  Coefficient  Atom+Function         Bfn.  Coefficient  Atom+Function  
  ----- ------------  ---------------      ----- ------------  ---------------
     2     -0.332313  1 H  s                  7     -0.309886  2 H  s          
     6     -0.296491  2 H  s                  1     -0.283289  1 H  s          

 Vector    2  Occ=2.100317D-03  E= 0.000000D+00
              MO Center=  2.6D-03,  4.8D-03, -4.1D-04, r^2= 1.9D+00
   Bfn.  Coefficient  Atom+Function         Bfn.  Coefficient  Atom+Function  
  ----- ------------  ---------------      ----- ------------  ---------------
     2      1.238028  1 H  s                  7     -1.242637  2 H  s          
     1      0.206762  1 H  s                  6     -0.202359  2 H  s          

 Vector    3  Occ=1.693883D-05  E= 0.000000D+00
              MO Center= -8.3D-04, -4.2D-04,  1.0D-02, r^2= 1.5D+00
   Bfn.  Coefficient  Atom+Function         Bfn.  Coefficient  Atom+Function  
  ----- ------------  ---------------      ----- ------------  ---------------
     6     -0.811750  2 H  s                  1     -0.798253  1 H  s          
     7      0.690474  2 H  s                  2      0.667794  1 H  s          
     5     -0.092804  1 H  pz                10      0.084696  2 H  pz         

 Vector    4  Occ=1.646183D-04  E= 0.000000D+00
              MO Center=  8.8D-04, -7.3D-04,  4.7D-03, r^2= 1.5D+00
   Bfn.  Coefficient  Atom+Function         Bfn.  Coefficient  Atom+Function  
  ----- ------------  ---------------      ----- ------------  ---------------
     2     -1.336095  1 H  s                  7      1.336679  2 H  s          
     1      0.935130  1 H  s                  6     -0.933781  2 H  s          
    10     -0.156863  2 H  pz                 5     -0.128162  1 H  pz         

 Vector    5  Occ=9.315794D-17  E= 0.000000D+00
              MO Center=  2.8D-03, -5.8D-04,  9.6D-03, r^2= 5.1D-01
   Bfn.  Coefficient  Atom+Function         Bfn.  Coefficient  Atom+Function  
  ----- ------------  ---------------      ----- ------------  ---------------
     8     -0.646700  2 H  px                 3     -0.632683  1 H  px         
     9      0.136113  2 H  py                 4      0.125371  1 H  py         

 Vector    6  Occ=3.573263D-05  E= 0.000000D+00
              MO Center=  1.0D-04,  4.9D-04, -1.4D-02, r^2= 5.1D-01
   Bfn.  Coefficient  Atom+Function         Bfn.  Coefficient  Atom+Function  
  ----- ------------  ---------------      ----- ------------  ---------------
     4      0.650711  1 H  py                 9      0.628862  2 H  py         
     3      0.133397  1 H  px                 8      0.127669  2 H  px         

 Vector    7  Occ=7.679556D-05  E= 0.000000D+00
              MO Center=  1.8D-04,  1.1D-05, -6.1D-03, r^2= 6.3D-01
   Bfn.  Coefficient  Atom+Function         Bfn.  Coefficient  Atom+Function  
  ----- ------------  ---------------      ----- ------------  ---------------
    10      0.609122  2 H  pz                 5     -0.602968  1 H  pz         
     1      0.382678  1 H  s                  6      0.338048  2 H  s          
     2     -0.212198  1 H  s                  7     -0.139023  2 H  s          

 Vector    8  Occ=4.158710D-18  E= 0.000000D+00
              MO Center= -3.2D-04, -4.4D-03,  1.3D-02, r^2= 5.9D-01
   Bfn.  Coefficient  Atom+Function         Bfn.  Coefficient  Atom+Function  
  ----- ------------  ---------------      ----- ------------  ---------------
     9      0.783132  2 H  py                 4     -0.766622  1 H  py         
     8      0.062816  2 H  px                 3     -0.051247  1 H  px         

 Vector    9  Occ=1.855007D-05  E= 0.000000D+00
              MO Center= -4.5D-03,  3.3D-04, -9.2D-03, r^2= 5.9D-01
   Bfn.  Coefficient  Atom+Function         Bfn.  Coefficient  Atom+Function  
  ----- ------------  ---------------      ----- ------------  ---------------
     3     -0.780836  1 H  px                 8      0.768811  2 H  px         
     4      0.059906  1 H  py                 9     -0.054379  2 H  py         

 Vector   10  Occ=3.254730D-05  E= 0.000000D+00
              MO Center=  1.4D-03,  2.3D-05, -5.1D-03, r^2= 6.4D-01
   Bfn.  Coefficient  Atom+Function         Bfn.  Coefficient  Atom+Function  
  ----- ------------  ---------------      ----- ------------  ---------------
     5     -1.134075  1 H  pz                10     -1.128151  2 H  pz         
     6      0.524261  2 H  s                  1     -0.516954  1 H  s          
     2     -0.291278  1 H  s                  7      0.284441  2 H  s          


                     WFN1 Final Beta Natural Orbital Analysis
                     ----------------------------------------

 Vector    1  Occ=9.975545D-01  E= 0.000000D+00
              MO Center= -2.3D-03,  5.0D-04, -2.7D-03, r^2= 8.7D-01
   Bfn.  Coefficient  Atom+Function         Bfn.  Coefficient  Atom+Function  
  ----- ------------  ---------------      ----- ------------  ---------------
     2     -0.332313  1 H  s                  7     -0.309886  2 H  s          
     6     -0.296491  2 H  s                  1     -0.283289  1 H  s          

 Vector    2  Occ=2.100317D-03  E= 0.000000D+00
              MO Center=  2.6D-03,  4.8D-03, -4.1D-04, r^2= 1.9D+00
   Bfn.  Coefficient  Atom+Function         Bfn.  Coefficient  Atom+Function  
  ----- ------------  ---------------      ----- ------------  ---------------
     2      1.238028  1 H  s                  7     -1.242637  2 H  s          
     1      0.206762  1 H  s                  6     -0.202359  2 H  s          

 Vector    3  Occ=1.693883D-05  E= 0.000000D+00
              MO Center= -8.3D-04, -4.2D-04,  1.0D-02, r^2= 1.5D+00
   Bfn.  Coefficient  Atom+Function         Bfn.  Coefficient  Atom+Function  
  ----- ------------  ---------------      ----- ------------  ---------------
     6     -0.811750  2 H  s                  1     -0.798253  1 H  s          
     7      0.690474  2 H  s                  2      0.667794  1 H  s          
     5     -0.092804  1 H  pz                10      0.084696  2 H  pz         

 Vector    4  Occ=1.646183D-04  E= 0.000000D+00
              MO Center=  8.8D-04, -7.3D-04,  4.7D-03, r^2= 1.5D+00
   Bfn.  Coefficient  Atom+Function         Bfn.  Coefficient  Atom+Function  
  ----- ------------  ---------------      ----- ------------  ---------------
     2     -1.336095  1 H  s                  7      1.336679  2 H  s          
     1      0.935130  1 H  s                  6     -0.933781  2 H  s          
    10     -0.156863  2 H  pz                 5     -0.128162  1 H  pz         

 Vector    5  Occ=9.315794D-17  E= 0.000000D+00
              MO Center=  2.8D-03, -5.8D-04,  9.6D-03, r^2= 5.1D-01
   Bfn.  Coefficient  Atom+Function         Bfn.  Coefficient  Atom+Function  
  ----- ------------  ---------------      ----- ------------  ---------------
     8     -0.646700  2 H  px                 3     -0.632683  1 H  px         
     9      0.136113  2 H  py                 4      0.125371  1 H  py         

 Vector    6  Occ=3.573263D-05  E= 0.000000D+00
              MO Center=  1.0D-04,  4.9D-04, -1.4D-02, r^2= 5.1D-01
   Bfn.  Coefficient  Atom+Function         Bfn.  Coefficient  Atom+Function  
  ----- ------------  ---------------      ----- ------------  ---------------
     4      0.650711  1 H  py                 9      0.628862  2 H  py         
     3      0.133397  1 H  px                 8      0.127669  2 H  px         

 Vector    7  Occ=7.679556D-05  E= 0.000000D+00
              MO Center=  1.8D-04,  1.1D-05, -6.1D-03, r^2= 6.3D-01
   Bfn.  Coefficient  Atom+Function         Bfn.  Coefficient  Atom+Function  
  ----- ------------  ---------------      ----- ------------  ---------------
    10      0.609122  2 H  pz                 5     -0.602968  1 H  pz         
     1      0.382678  1 H  s                  6      0.338048  2 H  s          
     2     -0.212198  1 H  s                  7     -0.139023  2 H  s          

 Vector    8  Occ=4.158710D-18  E= 0.000000D+00
              MO Center= -3.2D-04, -4.4D-03,  1.3D-02, r^2= 5.9D-01
   Bfn.  Coefficient  Atom+Function         Bfn.  Coefficient  Atom+Function  
  ----- ------------  ---------------      ----- ------------  ---------------
     9      0.783132  2 H  py                 4     -0.766622  1 H  py         
     8      0.062816  2 H  px                 3     -0.051247  1 H  px         

 Vector    9  Occ=1.855007D-05  E= 0.000000D+00
              MO Center= -4.5D-03,  3.3D-04, -9.2D-03, r^2= 5.9D-01
   Bfn.  Coefficient  Atom+Function         Bfn.  Coefficient  Atom+Function  
  ----- ------------  ---------------      ----- ------------  ---------------
     3     -0.780836  1 H  px                 8      0.768811  2 H  px         
     4      0.059906  1 H  py                 9     -0.054379  2 H  py         

 Vector   10  Occ=3.254730D-05  E= 0.000000D+00
              MO Center=  1.4D-03,  2.3D-05, -5.1D-03, r^2= 6.4D-01
   Bfn.  Coefficient  Atom+Function         Bfn.  Coefficient  Atom+Function  
  ----- ------------  ---------------      ----- ------------  ---------------
     5     -1.134075  1 H  pz                10     -1.128151  2 H  pz         
     6      0.524261  2 H  s                  1     -0.516954  1 H  s          
     2     -0.291278  1 H  s                  7      0.284441  2 H  s          


 Task  times  cpu:      151.1s     wall:      176.0s
 Summary of allocated global arrays
-----------------------------------
  No active global arrays



                         GA Statistics for process    0
                         ------------------------------

       create   destroy   get      put      acc     scatter   gather  read&inc
calls:   44       44     5.45e+07 2.49e+04 3.12e+04    0        0       11     
number of processes/call 1.00e+00 1.00e+00 1.00e+00 0.00e+00 0.00e+00
bytes total:             4.36e+10 2.49e+07 3.11e+07 0.00e+00 0.00e+00 8.80e+01
bytes remote:            0.00e+00 0.00e+00 0.00e+00 0.00e+00 0.00e+00 0.00e+00
Max memory consumed for GA by this process: 268000 bytes
MA_summarize_allocated_blocks: starting scan ...
MA_summarize_allocated_blocks: scan completed: 0 heap blocks, 0 stack blocks
MA usage statistics:

	allocation statistics:
					      heap	     stack
					      ----	     -----
	current number of blocks	         0	         0
	maximum number of blocks	        19	        17
	current total bytes		         0	         0
	maximum total bytes		   3205432	  22508664
	maximum total K-bytes		      3206	     22509
	maximum total M-bytes		         4	        23


                                NWChem Input Module
                                -------------------





                                     CITATION
                                     --------
                Please cite the following reference when publishing
                           results obtained with NWChem:

                 M. Valiev, E.J. Bylaska, N. Govind, K. Kowalski,
              T.P. Straatsma, H.J.J. van Dam, D. Wang, J. Nieplocha,
                        E. Apra, T.L. Windus, W.A. de Jong
                 "NWChem: a comprehensive and scalable open-source
                  solution for large scale molecular simulations"
                      Comput. Phys. Commun. 181, 1477 (2010)
                           doi:10.1016/j.cpc.2010.04.018

                                      AUTHORS
                                      -------
          E. Apra, E. J. Bylaska, W. A. de Jong, N. Govind, K. Kowalski,
       T. P. Straatsma, M. Valiev, H. J. J. van Dam, D. Wang, T. L. Windus,
        J. Hammond, J. Autschbach, K. Bhaskaran-Nair, J. Brabec, K. Lopata,
    S. A. Fischer, S. Krishnamoorthy, M. Jacquelin, W. Ma, M. Klemm, O. Villa,
      Y. Chen, V. Anisimov, F. Aquino, S. Hirata, M. T. Hackler, V. Konjkov,
      T. Risthaus, M. Malagoli, A. Marenich, A. Otero-de-la-Roza, J. Mullin,
        P. Nichols, R. Peverati, J. Pittner, Y. Zhao, P.-D. Fan, A. Fonari,
       M. Williamson, R. J. Harrison, J. R. Rehr, M. Dupuis, D. Silverstein,
    D. M. A. Smith, J. Nieplocha, V. Tipparaju, M. Krishnan, B. E. Van Kuiken,
        A. Vazquez-Mayagoitia, L. Jensen, M. Swart, Q. Wu, T. Van Voorhis,
     A. A. Auer, M. Nooijen, L. D. Crosby, E. Brown, G. Cisneros, G. I. Fann,
   H. Fruchtl, J. Garza, K. Hirao, R. A. Kendall, J. A. Nichols, K. Tsemekhman,
    K. Wolinski, J. Anchell, D. E. Bernholdt, P. Borowski, T. Clark, D. Clerc,
   H. Dachsel, M. J. O. Deegan, K. Dyall, D. Elwood, E. Glendening, M. Gutowski,
   A. C. Hess, J. Jaffe, B. G. Johnson, J. Ju, R. Kobayashi, R. Kutteh, Z. Lin,
   R. Littlefield, X. Long, B. Meng, T. Nakajima, S. Niu, L. Pollack, M. Rosing,
   K. Glaesemann, G. Sandrone, M. Stave, H. Taylor, G. Thomas, J. H. van Lenthe,
                               A. T. Wong, Z. Zhang.

 Total times  cpu:      151.1s     wall:      176.0s
