 argument  1 = input-wf.nw



============================== echo of input deck ==============================
echo
start wfn1_dat
geometry units au noautoz
  H 0 0 -1.14434600000000000000
  H 0 0  1.14434600000000000000
  symmetry cs
end
basis
  H library 6-31g**
end
set wfn1:input_vectors "atomic"
set wfn1:solver "monte-carlo"
set wfn1:print_error F
set wfn1:t_initial 0.1
#set wfn1:corr_expr "wfn1_mx"
set wfn1:corr_expr "wfn1c"
set wfn1:t_bath 0.0
set wfn1:maxit  20000
task wfn1 energy
================================================================================


                                         
                                         


              Northwest Computational Chemistry Package (NWChem) 6.8
              ------------------------------------------------------


                    Environmental Molecular Sciences Laboratory
                       Pacific Northwest National Laboratory
                                Richland, WA 99352

                              Copyright (c) 1994-2015
                       Pacific Northwest National Laboratory
                            Battelle Memorial Institute

             NWChem is an open-source computational chemistry package
                        distributed under the terms of the
                      Educational Community License (ECL) 2.0
             A copy of the license is included with this distribution
                              in the LICENSE.TXT file

                                  ACKNOWLEDGMENT
                                  --------------

            This software and its documentation were developed at the
            EMSL at Pacific Northwest National Laboratory, a multiprogram
            national laboratory, operated for the U.S. Department of Energy
            by Battelle under Contract Number DE-AC05-76RL01830. Support
            for this work was provided by the Department of Energy Office
            of Biological and Environmental Research, Office of Basic
            Energy Sciences, and the Office of Advanced Scientific Computing.


           Job information
           ---------------

    hostname        = erato
    program         = ../../../bin/LINUX64/nwchem
    date            = Mon Mar  1 11:51:53 2021

    compiled        = Sun_Feb_28_18:02:42_2021
    source          = /home/hvandam/nwchem-1-wfn1
    nwchem branch   = Development
    nwchem revision = nwchem_on_git-124-gad72d19fff205e319ffbbf2bca37a04ded6ad57b
    ga revision     = nwchem_on_git-124-gad72d19
    use scalapack   = F
    input           = input-wf.nw
    prefix          = wfn1_dat.
    data base       = ./wfn1_dat.db
    status          = startup
    nproc           =        1
    time left       =     -1s



           Memory information
           ------------------

    heap     =   13107198 doubles =    100.0 Mbytes
    stack    =   13107195 doubles =    100.0 Mbytes
    global   =   26214400 doubles =    200.0 Mbytes (distinct from heap & stack)
    total    =   52428793 doubles =    400.0 Mbytes
    verify   = yes
    hardfail = no 


           Directory information
           ---------------------

  0 permanent = .
  0 scratch   = .




                                NWChem Input Module
                                -------------------


 Turning off AUTOSYM since
 SYMMETRY directive was detected!



                             Geometry "geometry" -> ""
                             -------------------------

 Output coordinates in a.u. (scale by  1.000000000 to convert to a.u.)

  No.       Tag          Charge          X              Y              Z
 ---- ---------------- ---------- -------------- -------------- --------------
    1 H                    1.0000     0.00000000     0.00000000    -1.14434600
    2 H                    1.0000     0.00000000     0.00000000     1.14434600

      Atomic Mass 
      ----------- 

      H                  1.007825


 Effective nuclear repulsion energy (a.u.)       0.4369307884

            Nuclear Dipole moment (a.u.) 
            ----------------------------
        X                 Y               Z
 ---------------- ---------------- ----------------
     0.0000000000     0.0000000000     0.0000000000

      Symmetry information
      --------------------

 Group name             Cs        
 Group number              2
 Group order               2
 No. of unique centers     1

      Symmetry unique atoms

     1


            XYZ format geometry
            -------------------
     2
 geometry
 H                     0.00000000     0.00000000    -0.60556187
 H                     0.00000000     0.00000000     0.60556187

                      Basis "ao basis" -> "" (cartesian)
                      -----
  H (Hydrogen)
  ------------
            Exponent  Coefficients 
       -------------- ---------------------------------------------------------
  1 S  1.87311370E+01  0.033495
  1 S  2.82539370E+00  0.234727
  1 S  6.40121700E-01  0.813757

  2 S  1.61277800E-01  1.000000

  3 P  1.10000000E+00  1.000000



 Summary of "ao basis" -> "" (cartesian)
 ------------------------------------------------------------------------------
       Tag                 Description            Shells   Functions and Types
 ---------------- ------------------------------  ------  ---------------------
 H                          6-31g**                  3        5   2s1p



                                NWChem WFN1 Module
                                ------------------



          No. of electrons :     2
           Alpha electrons :     1
            Beta electrons :     1
          Charge           :     0
          Spin multiplicity:     1

 HvD: wfn1_inpdft
 HvD: nquad_task =                     1
 HvD: iangquad   =                     0
 HvD: gridtype   = user      
 HvD: leb        =  T
 HvD: radgrid    = murakn    
 HvD: trunc_neigh=  T
 HvD: lssw       =  T
 HvD: whichssw   = erf1    
 HvD: mxnrad     =                     0
 HvD: mxnang     =                     0
 HVD: wfn1: movecs_in  = atomic                                                                                                                                                                                                                                                          
 HVD: wfn1: movecs_out = ./wfn1_dat.movecs                                                                                                                                                                                                                                               

      Superposition of Atomic Density Guess
      -------------------------------------

 Sum of atomic energies:          -0.99646508

      Non-variational initial energy
      ------------------------------

 Total energy =      -0.766205
 1-e energy   =      -1.843659
 2-e energy   =       0.640523
 HOMO         =      -0.405434
 LUMO         =       0.041027

 iteration              energy           error
 ---------              ------           -----
         0         -1.05545674        0.200000
         1         -1.05559713        0.200000
         2         -1.05563961        0.200000
         3         -1.05569333        0.200000
         4         -1.05572626        0.171449
         5         -1.05585597        0.158740
         6         -1.05613513        0.146973
         7         -1.05631519        0.136079
         8         -1.05642987        0.125992
         9         -1.05645130        0.116653
        10         -1.05650406        0.116653
        11         -1.05675533        0.108006
        12         -1.05687043        0.108006
        13         -1.05697613        0.100000
        14         -1.05713891        0.100000
        15         -1.05718548        0.100000
        16         -1.05732276        0.100000
        17         -1.05754647        0.100000
        18         -1.05758966        0.100000
        19         -1.05764833        0.100000
        20         -1.05766307        0.100000
        21         -1.05780058        0.100000
        22         -1.05783595        0.100000
        23         -1.05783705        0.100000
        24         -1.05790645        0.100000
        25         -1.05795877        0.100000
        26         -1.05810716        0.100000
        27         -1.05815218        0.100000
        28         -1.05816738        0.068040
        29         -1.05822073        0.068040
        30         -1.05828688        0.058326
        31         -1.05829602        0.058326
        32         -1.05837129        0.054003
        33         -1.05854240        0.054003
        34         -1.05856729        0.042862
        35         -1.05858121        0.036743
        36         -1.05863538        0.036743
        37         -1.05863813        0.027001
        38         -1.05866685        0.025000
        39         -1.05870541        0.023147
        40         -1.05870863        0.019843
        41         -1.05872703        0.012500
        42         -1.05878375        0.011573
        43         -1.05884564        0.010716
        44         -1.05886791        0.009186
        45         -1.05890833        0.004252
        46         -1.05891041        0.003937
        47         -1.05894941        0.002480
        48         -1.05895076        0.001688
        49         -1.05895667        0.001240
        50         -1.05898067        0.000781
        51         -1.05898608        0.000670
        52         -1.05899140        0.000620
        53         -1.05899312        0.000456
        54         -1.05899891        0.000456
        55         -1.05900001        0.000133
        56         -1.05900121        0.000133
        57         -1.05900271        0.000133
        58         -1.05900860        0.000114
        59         -1.05901148        0.000098
        60         -1.05901280        0.000062
        61         -1.05901472        0.000053
        62         -1.05901475        0.000039
        63         -1.05901510        0.000028
        64         -1.05901535        0.000023
        65         -1.05901642        0.000023
        66         -1.05901764        0.000023
        67         -1.05901938        0.000012
        68         -1.05902091        0.000008
        69         -1.05902267        0.000007
        70         -1.05902277        0.000006
        71         -1.05902425        0.000004
        72         -1.05902475        0.000003
        73         -1.05902481        0.000001
        74         -1.05902508        0.000001
        75         -1.05902512        0.000001

 Reached Convergence

 WFN1                     :
 --------------------------
 Total WFN1 energy  =          -1.0590251243
 1-Electron energy  =          -2.0153853253
 2-Electron energy  =           0.5278024425
 Correlation energy =          -0.0083730298
 DFT XC energy      =           0.0000000000
 Entropy energy     =           0.0000000000
 Nuclear energy     =           0.4369307884

 conventional Hartree-Fock:
 --------------------------
 Total SCF energy  =          -1.0541804474
 2-Electron energy =           0.5326471194

                WFN1 Final Natural orbital energies and occupations
                ---------------------------------------------------

              Alpha       Beta            Alpha       Beta  
            --------    --------        --------    --------
       1      0.0000      0.0000          0.9928      0.9928
       2      0.0000      0.0000          0.0063      0.0063
       3      0.0000      0.0000          0.0002      0.0002
       4      0.0000      0.0000          0.0004      0.0004
       5      0.0000      0.0000          0.0001      0.0001
       6      0.0000      0.0000          0.0002      0.0002
       7      0.0000      0.0000          0.0000      0.0000
       8      0.0000      0.0000          0.0000      0.0000
       9      0.0000      0.0000          0.0001      0.0001
      10      0.0000      0.0000          0.0000      0.0000

             WFN1 Final Correlation function energies and occupations
             --------------------------------------------------------

              Alpha       Beta            Alpha       Beta  
            --------    --------        --------    --------
       1      0.0000      0.0000          1.0000      1.0000
       2      0.0000      0.0000          0.0000      0.0000
       3      0.0000      0.0000          0.0000      0.0000
       4      0.0000      0.0000          0.0000      0.0000
       5      0.0000      0.0000          0.0000      0.0000
       6      0.0000      0.0000          0.0000      0.0000
       7      0.0000      0.0000          0.0000      0.0000
       8      0.0000      0.0000          0.0000      0.0000
       9      0.0000      0.0000          0.0000      0.0000
      10      0.0000      0.0000          0.0000      0.0000

                WFN1 Final alpha-alpha 2-matrix occupation numbers
                --------------------------------------------------


 global array: g_momo1[1:10,1:10],  handle: -990 

            1           2           3           4           5           6  
       ----------- ----------- ----------- ----------- ----------- -----------
   1       0.00000    -0.00000     0.00000     0.00000    -0.00000     0.00000
   2       0.00000     0.00000     0.00000     0.00000    -0.00000     0.00000
   3       0.00000     0.00000     0.00000     0.00000    -0.00000     0.00000
   4       0.00000     0.00000     0.00000     0.00000    -0.00000     0.00000
   5       0.00000    -0.00000     0.00000     0.00000    -0.00000     0.00000
   6       0.00000     0.00000     0.00000     0.00000    -0.00000     0.00000
   7       0.00000    -0.00000     0.00000     0.00000    -0.00000     0.00000
   8       0.00000    -0.00000     0.00000     0.00000    -0.00000     0.00000
   9       0.00000     0.00000     0.00000     0.00000    -0.00000     0.00000
  10       0.00000     0.00000     0.00000     0.00000     0.00000     0.00000

            7           8           9          10  
       ----------- ----------- ----------- -----------
   1       0.00000     0.00000     0.00000    -0.00000
   2       0.00000     0.00000     0.00000     0.00000
   3       0.00000    -0.00000    -0.00000     0.00000
   4       0.00000     0.00000     0.00000     0.00000
   5       0.00000    -0.00000    -0.00000     0.00000
   6       0.00000     0.00000     0.00000     0.00000
   7       0.00000     0.00000     0.00000     0.00000
   8       0.00000     0.00000     0.00000     0.00000
   9       0.00000     0.00000    -0.00000    -0.00000
  10       0.00000     0.00000     0.00000     0.00000

                 WFN1 Final beta-beta 2-matrix occupation numbers
                 ------------------------------------------------


 global array: g_momo2[1:10,1:10],  handle: -989 

            1           2           3           4           5           6  
       ----------- ----------- ----------- ----------- ----------- -----------
   1       0.00000    -0.00000     0.00000     0.00000    -0.00000     0.00000
   2       0.00000     0.00000     0.00000     0.00000    -0.00000     0.00000
   3       0.00000     0.00000     0.00000     0.00000    -0.00000     0.00000
   4       0.00000     0.00000     0.00000     0.00000    -0.00000     0.00000
   5       0.00000    -0.00000     0.00000     0.00000    -0.00000     0.00000
   6       0.00000     0.00000     0.00000     0.00000    -0.00000     0.00000
   7       0.00000    -0.00000     0.00000     0.00000    -0.00000     0.00000
   8       0.00000    -0.00000     0.00000     0.00000    -0.00000     0.00000
   9       0.00000     0.00000     0.00000     0.00000    -0.00000     0.00000
  10       0.00000     0.00000     0.00000     0.00000     0.00000     0.00000

            7           8           9          10  
       ----------- ----------- ----------- -----------
   1       0.00000     0.00000     0.00000    -0.00000
   2       0.00000     0.00000     0.00000     0.00000
   3       0.00000    -0.00000    -0.00000     0.00000
   4       0.00000     0.00000     0.00000     0.00000
   5       0.00000    -0.00000    -0.00000     0.00000
   6       0.00000     0.00000     0.00000     0.00000
   7       0.00000     0.00000     0.00000     0.00000
   8       0.00000     0.00000     0.00000     0.00000
   9       0.00000     0.00000    -0.00000    -0.00000
  10       0.00000     0.00000     0.00000     0.00000

                  WFN1 Final alpha Correlation Function Analysis
                  ----------------------------------------------


 global array: Ca[1:10,1:10],  handle: -977 

                     1                       2                       3                       4                       5                       6  
       ----------------------- ----------------------- ----------------------- ----------------------- ----------------------- -----------------------
   1      -0.16182,   -0.98315    -0.00243,    0.07943     0.00257,   -0.00630    -0.02001,   -0.00693     0.00901,    0.00435     0.00570,   -0.01055
   2      -0.04647,    0.06467    -0.71792,    0.68686     0.01642,   -0.00063     0.03510,    0.01015     0.01973,    0.03081     0.01508,    0.00925
   3      -0.01026,   -0.01011    -0.00336,   -0.00512    -0.62482,    0.53232     0.42196,   -0.38189    -0.00217,    0.01050    -0.00477,    0.02387
   4      -0.01597,    0.00994    -0.02896,   -0.02412     0.02174,   -0.56843     0.00752,   -0.81804    -0.02056,   -0.00669    -0.00208,    0.00519
   5      -0.00580,    0.00669     0.02295,    0.00450     0.00548,    0.00307     0.01450,    0.00139    -0.46058,    0.68532     0.30362,   -0.47208
   6      -0.01201,   -0.00504     0.01720,   -0.00423     0.00158,   -0.03302     0.00550,   -0.00699     0.10325,    0.39328     0.16105,    0.54894
   7      -0.00000,   -0.00000    -0.01776,    0.02485    -0.01416,    0.01420    -0.01278,   -0.01934    -0.34721,   -0.14036    -0.53838,   -0.22366
   8      -0.00000,    0.00000     0.01245,   -0.03802    -0.00462,    0.00635     0.02972,    0.01647     0.02266,    0.05834     0.07578,    0.05903
   9       0.00207,    0.00708    -0.02991,    0.00276     0.00342,   -0.00697     0.00522,   -0.03722     0.06752,    0.03947     0.08120,    0.02942
  10      -0.00463,   -0.00304    -0.00384,    0.02715     0.02552,   -0.00456     0.02277,   -0.03409    -0.01696,    0.01630     0.00292,   -0.00525

                     7                       8                       9                      10  
       ----------------------- ----------------------- ----------------------- -----------------------
   1       0.00448,   -0.00611     0.00363,    0.00736     0.00036,   -0.00424     0.00604,   -0.00199
   2      -0.01428,   -0.00828    -0.01790,    0.02496     0.02448,    0.02404     0.02869,   -0.00247
   3      -0.01593,   -0.00360    -0.01659,   -0.01321    -0.01537,    0.01163     0.01410,    0.01016
   4      -0.01107,   -0.03399    -0.02512,    0.00905     0.01681,    0.02329     0.00389,   -0.04537
   5       0.00876,   -0.02422    -0.01484,   -0.02163    -0.01933,    0.00075     0.01541,   -0.01766
   6       0.20775,    0.66125    -0.03211,   -0.10044     0.02916,    0.11524     0.00361,    0.00830
   7       0.65107,    0.25351     0.10631,    0.05984     0.11448,    0.03863     0.01781,    0.00508
   8      -0.09386,   -0.08746     0.47683,    0.49966     0.47884,    0.51097    -0.00181,   -0.01345
   9       0.09182,    0.05971     0.61382,    0.34210    -0.60519,   -0.33399    -0.01820,    0.00661
  10       0.01452,   -0.01488    -0.01611,    0.00663     0.01407,    0.01100    -0.76129,    0.64472

                   WFN1 Final beta Correlation Function Analysis
                   ---------------------------------------------


 global array: Cb[1:10,1:10],  handle: -976 

                     1                       2                       3                       4                       5                       6  
       ----------------------- ----------------------- ----------------------- ----------------------- ----------------------- -----------------------
   1      -0.16182,   -0.98315    -0.00243,    0.07943     0.00257,   -0.00630    -0.02001,   -0.00693     0.00901,    0.00435     0.00570,   -0.01055
   2      -0.04647,    0.06467    -0.71792,    0.68686     0.01642,   -0.00063     0.03510,    0.01015     0.01973,    0.03081     0.01508,    0.00925
   3      -0.01026,   -0.01011    -0.00336,   -0.00512    -0.62482,    0.53232     0.42196,   -0.38189    -0.00217,    0.01050    -0.00477,    0.02387
   4      -0.01597,    0.00994    -0.02896,   -0.02412     0.02174,   -0.56843     0.00752,   -0.81804    -0.02056,   -0.00669    -0.00208,    0.00519
   5      -0.00580,    0.00669     0.02295,    0.00450     0.00548,    0.00307     0.01450,    0.00139    -0.46058,    0.68532     0.30362,   -0.47208
   6      -0.01201,   -0.00504     0.01720,   -0.00423     0.00158,   -0.03302     0.00550,   -0.00699     0.10325,    0.39328     0.16105,    0.54894
   7      -0.00000,   -0.00000    -0.01776,    0.02485    -0.01416,    0.01420    -0.01278,   -0.01934    -0.34721,   -0.14036    -0.53838,   -0.22366
   8      -0.00000,    0.00000     0.01245,   -0.03802    -0.00462,    0.00635     0.02972,    0.01647     0.02266,    0.05834     0.07578,    0.05903
   9       0.00207,    0.00708    -0.02991,    0.00276     0.00342,   -0.00697     0.00522,   -0.03722     0.06752,    0.03947     0.08120,    0.02942
  10      -0.00463,   -0.00304    -0.00384,    0.02715     0.02552,   -0.00456     0.02277,   -0.03409    -0.01696,    0.01630     0.00292,   -0.00525

                     7                       8                       9                      10  
       ----------------------- ----------------------- ----------------------- -----------------------
   1       0.00448,   -0.00611     0.00363,    0.00736     0.00036,   -0.00424     0.00604,   -0.00199
   2      -0.01428,   -0.00828    -0.01790,    0.02496     0.02448,    0.02404     0.02869,   -0.00247
   3      -0.01593,   -0.00360    -0.01659,   -0.01321    -0.01537,    0.01163     0.01410,    0.01016
   4      -0.01107,   -0.03399    -0.02512,    0.00905     0.01681,    0.02329     0.00389,   -0.04537
   5       0.00876,   -0.02422    -0.01484,   -0.02163    -0.01933,    0.00075     0.01541,   -0.01766
   6       0.20775,    0.66125    -0.03211,   -0.10044     0.02916,    0.11524     0.00361,    0.00830
   7       0.65107,    0.25351     0.10631,    0.05984     0.11448,    0.03863     0.01781,    0.00508
   8      -0.09386,   -0.08746     0.47683,    0.49966     0.47884,    0.51097    -0.00181,   -0.01345
   9       0.09182,    0.05971     0.61382,    0.34210    -0.60519,   -0.33399    -0.01820,    0.00661
  10       0.01452,   -0.01488    -0.01611,    0.00663     0.01407,    0.01100    -0.76129,    0.64472

                     WFN1 Final Alpha Natural Orbital Analysis
                     -----------------------------------------

 Vector    1  Occ=9.927637D-01  E= 0.000000D+00
              MO Center= -1.5D-03, -3.8D-04,  1.3D-03, r^2= 1.1D+00
   Bfn.  Coefficient  Atom+Function         Bfn.  Coefficient  Atom+Function  
  ----- ------------  ---------------      ----- ------------  ---------------
     7      0.376594  2 H  s                  2      0.363800  1 H  s          
     1      0.265874  1 H  s                  6      0.256552  2 H  s          

 Vector    2  Occ=6.341910D-03  E= 0.000000D+00
              MO Center= -7.0D-03,  3.8D-05, -3.2D-02, r^2= 1.9D+00
   Bfn.  Coefficient  Atom+Function         Bfn.  Coefficient  Atom+Function  
  ----- ------------  ---------------      ----- ------------  ---------------
     7      0.980467  2 H  s                  2     -0.968964  1 H  s          
     1     -0.223993  1 H  s                  6      0.197702  2 H  s          
    10     -0.030758  2 H  pz         

 Vector    3  Occ=2.075855D-04  E= 0.000000D+00
              MO Center=  3.8D-04, -9.0D-05,  1.1D-02, r^2= 1.6D+00
   Bfn.  Coefficient  Atom+Function         Bfn.  Coefficient  Atom+Function  
  ----- ------------  ---------------      ----- ------------  ---------------
     6      0.883539  2 H  s                  1      0.862736  1 H  s          
     7     -0.690482  2 H  s                  2     -0.682187  1 H  s          
    10     -0.153883  2 H  pz                 5      0.118808  1 H  pz         

 Vector    4  Occ=3.537175D-04  E= 0.000000D+00
              MO Center=  2.3D-03,  1.2D-03, -2.4D-02, r^2= 1.7D+00
   Bfn.  Coefficient  Atom+Function         Bfn.  Coefficient  Atom+Function  
  ----- ------------  ---------------      ----- ------------  ---------------
     2      1.185600  1 H  s                  7     -1.164094  2 H  s          
     1     -0.939380  1 H  s                  6      0.914599  2 H  s          
     5      0.071961  1 H  pz                10      0.049641  2 H  pz         

 Vector    5  Occ=7.834842D-05  E= 0.000000D+00
              MO Center= -1.6D-04, -7.9D-04,  5.8D-02, r^2= 7.5D-01
   Bfn.  Coefficient  Atom+Function         Bfn.  Coefficient  Atom+Function  
  ----- ------------  ---------------      ----- ------------  ---------------
    10     -0.631514  2 H  pz                 5      0.606415  1 H  pz         
     6     -0.318441  2 H  s                  1     -0.265601  1 H  s          
     2      0.148991  1 H  s                  7      0.117604  2 H  s          

 Vector    6  Occ=1.697377D-04  E= 0.000000D+00
              MO Center=  1.5D-03, -2.4D-04,  6.0D-03, r^2= 6.7D-01
   Bfn.  Coefficient  Atom+Function         Bfn.  Coefficient  Atom+Function  
  ----- ------------  ---------------      ----- ------------  ---------------
     8      0.689660  2 H  px                 3      0.680852  1 H  px         
     4     -0.066698  1 H  py                 9     -0.051728  2 H  py         
     2      0.033507  1 H  s                  7     -0.027612  2 H  s          

 Vector    7  Occ=9.844152D-17  E= 0.000000D+00
              MO Center=  7.3D-05,  9.9D-04, -2.3D-02, r^2= 6.7D-01
   Bfn.  Coefficient  Atom+Function         Bfn.  Coefficient  Atom+Function  
  ----- ------------  ---------------      ----- ------------  ---------------
     4      0.697446  1 H  py                 9      0.672627  2 H  py         
     3      0.078873  1 H  px                 8      0.040256  2 H  px         
     2     -0.025986  1 H  s          

 Vector    8  Occ=7.507039D-18  E= 0.000000D+00
              MO Center=  4.4D-03,  1.3D-03,  4.5D-03, r^2= 7.1D-01
   Bfn.  Coefficient  Atom+Function         Bfn.  Coefficient  Atom+Function  
  ----- ------------  ---------------      ----- ------------  ---------------
     3     -0.700916  1 H  px                 8      0.693022  2 H  px         
     9      0.228607  2 H  py                 4     -0.186351  1 H  py         
     7      0.041813  2 H  s          

 Vector    9  Occ=5.435233D-05  E= 0.000000D+00
              MO Center=  4.0D-04, -1.3D-03,  1.3D-02, r^2= 7.1D-01
   Bfn.  Coefficient  Atom+Function         Bfn.  Coefficient  Atom+Function  
  ----- ------------  ---------------      ----- ------------  ---------------
     9      0.703746  2 H  py                 4     -0.690909  1 H  py         
     8     -0.212922  2 H  px                 3      0.202615  1 H  px         

 Vector   10  Occ=3.066360D-05  E= 0.000000D+00
              MO Center= -4.8D-04, -6.5D-04, -1.5D-02, r^2= 7.6D-01
   Bfn.  Coefficient  Atom+Function         Bfn.  Coefficient  Atom+Function  
  ----- ------------  ---------------      ----- ------------  ---------------
     5     -0.880643  1 H  pz                10     -0.858642  2 H  pz         
     7      0.299866  2 H  s                  2     -0.274328  1 H  s          
     1     -0.113458  1 H  s                  6      0.085501  2 H  s          


                     WFN1 Final Beta Natural Orbital Analysis
                     ----------------------------------------

 Vector    1  Occ=9.927637D-01  E= 0.000000D+00
              MO Center= -1.5D-03, -3.8D-04,  1.3D-03, r^2= 1.1D+00
   Bfn.  Coefficient  Atom+Function         Bfn.  Coefficient  Atom+Function  
  ----- ------------  ---------------      ----- ------------  ---------------
     7      0.376594  2 H  s                  2      0.363800  1 H  s          
     1      0.265874  1 H  s                  6      0.256552  2 H  s          

 Vector    2  Occ=6.341910D-03  E= 0.000000D+00
              MO Center= -7.0D-03,  3.8D-05, -3.2D-02, r^2= 1.9D+00
   Bfn.  Coefficient  Atom+Function         Bfn.  Coefficient  Atom+Function  
  ----- ------------  ---------------      ----- ------------  ---------------
     7      0.980467  2 H  s                  2     -0.968964  1 H  s          
     1     -0.223993  1 H  s                  6      0.197702  2 H  s          
    10     -0.030758  2 H  pz         

 Vector    3  Occ=2.075855D-04  E= 0.000000D+00
              MO Center=  3.8D-04, -9.0D-05,  1.1D-02, r^2= 1.6D+00
   Bfn.  Coefficient  Atom+Function         Bfn.  Coefficient  Atom+Function  
  ----- ------------  ---------------      ----- ------------  ---------------
     6      0.883539  2 H  s                  1      0.862736  1 H  s          
     7     -0.690482  2 H  s                  2     -0.682187  1 H  s          
    10     -0.153883  2 H  pz                 5      0.118808  1 H  pz         

 Vector    4  Occ=3.537175D-04  E= 0.000000D+00
              MO Center=  2.3D-03,  1.2D-03, -2.4D-02, r^2= 1.7D+00
   Bfn.  Coefficient  Atom+Function         Bfn.  Coefficient  Atom+Function  
  ----- ------------  ---------------      ----- ------------  ---------------
     2      1.185600  1 H  s                  7     -1.164094  2 H  s          
     1     -0.939380  1 H  s                  6      0.914599  2 H  s          
     5      0.071961  1 H  pz                10      0.049641  2 H  pz         

 Vector    5  Occ=7.834842D-05  E= 0.000000D+00
              MO Center= -1.6D-04, -7.9D-04,  5.8D-02, r^2= 7.5D-01
   Bfn.  Coefficient  Atom+Function         Bfn.  Coefficient  Atom+Function  
  ----- ------------  ---------------      ----- ------------  ---------------
    10     -0.631514  2 H  pz                 5      0.606415  1 H  pz         
     6     -0.318441  2 H  s                  1     -0.265601  1 H  s          
     2      0.148991  1 H  s                  7      0.117604  2 H  s          

 Vector    6  Occ=1.697377D-04  E= 0.000000D+00
              MO Center=  1.5D-03, -2.4D-04,  6.0D-03, r^2= 6.7D-01
   Bfn.  Coefficient  Atom+Function         Bfn.  Coefficient  Atom+Function  
  ----- ------------  ---------------      ----- ------------  ---------------
     8      0.689660  2 H  px                 3      0.680852  1 H  px         
     4     -0.066698  1 H  py                 9     -0.051728  2 H  py         
     2      0.033507  1 H  s                  7     -0.027612  2 H  s          

 Vector    7  Occ=9.844152D-17  E= 0.000000D+00
              MO Center=  7.3D-05,  9.9D-04, -2.3D-02, r^2= 6.7D-01
   Bfn.  Coefficient  Atom+Function         Bfn.  Coefficient  Atom+Function  
  ----- ------------  ---------------      ----- ------------  ---------------
     4      0.697446  1 H  py                 9      0.672627  2 H  py         
     3      0.078873  1 H  px                 8      0.040256  2 H  px         
     2     -0.025986  1 H  s          

 Vector    8  Occ=7.507039D-18  E= 0.000000D+00
              MO Center=  4.4D-03,  1.3D-03,  4.5D-03, r^2= 7.1D-01
   Bfn.  Coefficient  Atom+Function         Bfn.  Coefficient  Atom+Function  
  ----- ------------  ---------------      ----- ------------  ---------------
     3     -0.700916  1 H  px                 8      0.693022  2 H  px         
     9      0.228607  2 H  py                 4     -0.186351  1 H  py         
     7      0.041813  2 H  s          

 Vector    9  Occ=5.435233D-05  E= 0.000000D+00
              MO Center=  4.0D-04, -1.3D-03,  1.3D-02, r^2= 7.1D-01
   Bfn.  Coefficient  Atom+Function         Bfn.  Coefficient  Atom+Function  
  ----- ------------  ---------------      ----- ------------  ---------------
     9      0.703746  2 H  py                 4     -0.690909  1 H  py         
     8     -0.212922  2 H  px                 3      0.202615  1 H  px         

 Vector   10  Occ=3.066360D-05  E= 0.000000D+00
              MO Center= -4.8D-04, -6.5D-04, -1.5D-02, r^2= 7.6D-01
   Bfn.  Coefficient  Atom+Function         Bfn.  Coefficient  Atom+Function  
  ----- ------------  ---------------      ----- ------------  ---------------
     5     -0.880643  1 H  pz                10     -0.858642  2 H  pz         
     7      0.299866  2 H  s                  2     -0.274328  1 H  s          
     1     -0.113458  1 H  s                  6      0.085501  2 H  s          


 Task  times  cpu:      158.0s     wall:      183.7s
 Summary of allocated global arrays
-----------------------------------
  No active global arrays



                         GA Statistics for process    0
                         ------------------------------

       create   destroy   get      put      acc     scatter   gather  read&inc
calls:   44       44     5.57e+07 2.54e+04 3.19e+04    0        0       11     
number of processes/call 1.00e+00 1.00e+00 1.00e+00 0.00e+00 0.00e+00
bytes total:             4.45e+10 2.55e+07 3.18e+07 0.00e+00 0.00e+00 8.80e+01
bytes remote:            0.00e+00 0.00e+00 0.00e+00 0.00e+00 0.00e+00 0.00e+00
Max memory consumed for GA by this process: 268000 bytes
MA_summarize_allocated_blocks: starting scan ...
MA_summarize_allocated_blocks: scan completed: 0 heap blocks, 0 stack blocks
MA usage statistics:

	allocation statistics:
					      heap	     stack
					      ----	     -----
	current number of blocks	         0	         0
	maximum number of blocks	        19	        17
	current total bytes		         0	         0
	maximum total bytes		   3205432	  22508664
	maximum total K-bytes		      3206	     22509
	maximum total M-bytes		         4	        23


                                NWChem Input Module
                                -------------------





                                     CITATION
                                     --------
                Please cite the following reference when publishing
                           results obtained with NWChem:

                 M. Valiev, E.J. Bylaska, N. Govind, K. Kowalski,
              T.P. Straatsma, H.J.J. van Dam, D. Wang, J. Nieplocha,
                        E. Apra, T.L. Windus, W.A. de Jong
                 "NWChem: a comprehensive and scalable open-source
                  solution for large scale molecular simulations"
                      Comput. Phys. Commun. 181, 1477 (2010)
                           doi:10.1016/j.cpc.2010.04.018

                                      AUTHORS
                                      -------
          E. Apra, E. J. Bylaska, W. A. de Jong, N. Govind, K. Kowalski,
       T. P. Straatsma, M. Valiev, H. J. J. van Dam, D. Wang, T. L. Windus,
        J. Hammond, J. Autschbach, K. Bhaskaran-Nair, J. Brabec, K. Lopata,
    S. A. Fischer, S. Krishnamoorthy, M. Jacquelin, W. Ma, M. Klemm, O. Villa,
      Y. Chen, V. Anisimov, F. Aquino, S. Hirata, M. T. Hackler, V. Konjkov,
      T. Risthaus, M. Malagoli, A. Marenich, A. Otero-de-la-Roza, J. Mullin,
        P. Nichols, R. Peverati, J. Pittner, Y. Zhao, P.-D. Fan, A. Fonari,
       M. Williamson, R. J. Harrison, J. R. Rehr, M. Dupuis, D. Silverstein,
    D. M. A. Smith, J. Nieplocha, V. Tipparaju, M. Krishnan, B. E. Van Kuiken,
        A. Vazquez-Mayagoitia, L. Jensen, M. Swart, Q. Wu, T. Van Voorhis,
     A. A. Auer, M. Nooijen, L. D. Crosby, E. Brown, G. Cisneros, G. I. Fann,
   H. Fruchtl, J. Garza, K. Hirao, R. A. Kendall, J. A. Nichols, K. Tsemekhman,
    K. Wolinski, J. Anchell, D. E. Bernholdt, P. Borowski, T. Clark, D. Clerc,
   H. Dachsel, M. J. O. Deegan, K. Dyall, D. Elwood, E. Glendening, M. Gutowski,
   A. C. Hess, J. Jaffe, B. G. Johnson, J. Ju, R. Kobayashi, R. Kutteh, Z. Lin,
   R. Littlefield, X. Long, B. Meng, T. Nakajima, S. Niu, L. Pollack, M. Rosing,
   K. Glaesemann, G. Sandrone, M. Stave, H. Taylor, G. Thomas, J. H. van Lenthe,
                               A. T. Wong, Z. Zhang.

 Total times  cpu:      158.0s     wall:      183.7s
