 argument  1 = input-wf.nw



============================== echo of input deck ==============================
echo
start wfn1_dat
geometry units au noautoz
  H 0 0 -2.14434600000000000000
  H 0 0  2.14434600000000000000
  symmetry cs
end
basis
  H library 6-31g**
end
set wfn1:input_vectors "atomic"
set wfn1:solver "monte-carlo"
set wfn1:print_error F
set wfn1:t_initial 0.1
#set wfn1:corr_expr "wfn1_mx"
set wfn1:corr_expr "wfn1c"
set wfn1:t_bath 0.0
set wfn1:maxit  20000
task wfn1 energy
================================================================================


                                         
                                         


              Northwest Computational Chemistry Package (NWChem) 6.8
              ------------------------------------------------------


                    Environmental Molecular Sciences Laboratory
                       Pacific Northwest National Laboratory
                                Richland, WA 99352

                              Copyright (c) 1994-2015
                       Pacific Northwest National Laboratory
                            Battelle Memorial Institute

             NWChem is an open-source computational chemistry package
                        distributed under the terms of the
                      Educational Community License (ECL) 2.0
             A copy of the license is included with this distribution
                              in the LICENSE.TXT file

                                  ACKNOWLEDGMENT
                                  --------------

            This software and its documentation were developed at the
            EMSL at Pacific Northwest National Laboratory, a multiprogram
            national laboratory, operated for the U.S. Department of Energy
            by Battelle under Contract Number DE-AC05-76RL01830. Support
            for this work was provided by the Department of Energy Office
            of Biological and Environmental Research, Office of Basic
            Energy Sciences, and the Office of Advanced Scientific Computing.


           Job information
           ---------------

    hostname        = erato
    program         = ../../../bin/LINUX64/nwchem
    date            = Mon Mar  1 23:53:57 2021

    compiled        = Sun_Feb_28_18:02:42_2021
    source          = /home/hvandam/nwchem-1-wfn1
    nwchem branch   = Development
    nwchem revision = nwchem_on_git-124-gad72d19fff205e319ffbbf2bca37a04ded6ad57b
    ga revision     = nwchem_on_git-124-gad72d19
    use scalapack   = F
    input           = input-wf.nw
    prefix          = wfn1_dat.
    data base       = ./wfn1_dat.db
    status          = startup
    nproc           =        1
    time left       =     -1s



           Memory information
           ------------------

    heap     =   13107198 doubles =    100.0 Mbytes
    stack    =   13107195 doubles =    100.0 Mbytes
    global   =   26214400 doubles =    200.0 Mbytes (distinct from heap & stack)
    total    =   52428793 doubles =    400.0 Mbytes
    verify   = yes
    hardfail = no 


           Directory information
           ---------------------

  0 permanent = .
  0 scratch   = .




                                NWChem Input Module
                                -------------------


 Turning off AUTOSYM since
 SYMMETRY directive was detected!



                             Geometry "geometry" -> ""
                             -------------------------

 Output coordinates in a.u. (scale by  1.000000000 to convert to a.u.)

  No.       Tag          Charge          X              Y              Z
 ---- ---------------- ---------- -------------- -------------- --------------
    1 H                    1.0000     0.00000000     0.00000000    -2.14434600
    2 H                    1.0000     0.00000000     0.00000000     2.14434600

      Atomic Mass 
      ----------- 

      H                  1.007825


 Effective nuclear repulsion energy (a.u.)       0.2331713259

            Nuclear Dipole moment (a.u.) 
            ----------------------------
        X                 Y               Z
 ---------------- ---------------- ----------------
     0.0000000000     0.0000000000     0.0000000000

      Symmetry information
      --------------------

 Group name             Cs        
 Group number              2
 Group order               2
 No. of unique centers     1

      Symmetry unique atoms

     1


            XYZ format geometry
            -------------------
     2
 geometry
 H                     0.00000000     0.00000000    -1.13473912
 H                     0.00000000     0.00000000     1.13473912

                      Basis "ao basis" -> "" (cartesian)
                      -----
  H (Hydrogen)
  ------------
            Exponent  Coefficients 
       -------------- ---------------------------------------------------------
  1 S  1.87311370E+01  0.033495
  1 S  2.82539370E+00  0.234727
  1 S  6.40121700E-01  0.813757

  2 S  1.61277800E-01  1.000000

  3 P  1.10000000E+00  1.000000



 Summary of "ao basis" -> "" (cartesian)
 ------------------------------------------------------------------------------
       Tag                 Description            Shells   Functions and Types
 ---------------- ------------------------------  ------  ---------------------
 H                          6-31g**                  3        5   2s1p



                                NWChem WFN1 Module
                                ------------------



          No. of electrons :     2
           Alpha electrons :     1
            Beta electrons :     1
          Charge           :     0
          Spin multiplicity:     1

 HvD: wfn1_inpdft
 HvD: nquad_task =                     1
 HvD: iangquad   =                     0
 HvD: gridtype   = user      
 HvD: leb        =  T
 HvD: radgrid    = murakn    
 HvD: trunc_neigh=  T
 HvD: lssw       =  T
 HvD: whichssw   = erf1    
 HvD: mxnrad     =                     0
 HvD: mxnang     =                     0
 HVD: wfn1: movecs_in  = atomic                                                                                                                                                                                                                                                          
 HVD: wfn1: movecs_out = ./wfn1_dat.movecs                                                                                                                                                                                                                                               

      Superposition of Atomic Density Guess
      -------------------------------------

 Sum of atomic energies:          -0.99646508

      Non-variational initial energy
      ------------------------------

 Total energy =      -0.687237
 1-e energy   =      -1.462690
 2-e energy   =       0.542282
 HOMO         =      -0.244114
 LUMO         =      -0.133172

 iteration              energy           error
 ---------              ------           -----
         0         -0.87349432        0.200000
         1         -0.87894390        0.200000
         2         -0.88028455        0.200000
         3         -0.88058389        0.200000
         4         -0.88149517        0.200000
         5         -0.88429546        0.200000
         6         -0.88481246        0.200000
         7         -0.88676662        0.200000
         8         -0.88913001        0.200000
         9         -0.88982736        0.200000
        10         -0.88991936        0.200000
        11         -0.89118160        0.200000
        12         -0.89136035        0.200000
        13         -0.89138620        0.200000
        14         -0.89234235        0.200000
        15         -0.89284660        0.200000
        16         -0.89306676        0.200000
        17         -0.89342982        0.200000
        18         -0.89420895        0.200000
        19         -0.89510493        0.200000
        20         -0.89517136        0.185175
        21         -0.89530131        0.185175
        22         -0.89535694        0.185175
        23         -0.89588472        0.185175
        24         -0.89659108        0.185175
        25         -0.89665998        0.185175
        26         -0.89724746        0.171449
        27         -0.89732964        0.171449
        28         -0.89733461        0.158740
        29         -0.89760908        0.136079
        30         -0.89779196        0.116653
        31         -0.89784445        0.108006
        32         -0.89800716        0.108006
        33         -0.89818018        0.108006
        34         -0.89829233        0.100000
        35         -0.89838365        0.100000
        36         -0.89838439        0.100000
        37         -0.89840226        0.100000
        38         -0.89845483        0.100000
        39         -0.89861921        0.092587
        40         -0.89902452        0.092587
        41         -0.89905624        0.085724
        42         -0.89916995        0.085724
        43         -0.89917336        0.085724
        44         -0.89924128        0.079370
        45         -0.89937891        0.079370
        46         -0.89944900        0.079370
        47         -0.89950072        0.079370
        48         -0.89951193        0.062996
        49         -0.89951259        0.058326
        50         -0.89960790        0.058326
        51         -0.89964888        0.058326
        52         -0.89978073        0.058326
        53         -0.89985035        0.058326
        54         -0.89988562        0.058326
        55         -0.89998094        0.058326
        56         -0.89998496        0.058326
        57         -0.89999501        0.058326
        58         -0.90002077        0.058326
        59         -0.90002405        0.058326
        60         -0.90003858        0.058326
        61         -0.90009088        0.054003
        62         -0.90010132        0.054003
        63         -0.90017739        0.054003
        64         -0.90020999        0.054003
        65         -0.90029198        0.054003
        66         -0.90029774        0.054003
        67         -0.90030789        0.054003
        68         -0.90037208        0.054003
        69         -0.90042235        0.054003
        70         -0.90046341        0.054003
        71         -0.90049977        0.054003
        72         -0.90053780        0.054003
        73         -0.90054313        0.054003
        74         -0.90059999        0.054003
        75         -0.90061600        0.054003
        76         -0.90063257        0.054003
        77         -0.90065315        0.054003
        78         -0.90065803        0.054003
        79         -0.90074437        0.054003
        80         -0.90080257        0.054003
        81         -0.90083284        0.050000
        82         -0.90086657        0.050000
        83         -0.90089723        0.050000
        84         -0.90095002        0.050000
        85         -0.90097699        0.046294
        86         -0.90098623        0.046294
        87         -0.90099465        0.046294
        88         -0.90103872        0.046294
        89         -0.90106163        0.046294
        90         -0.90108912        0.042862
        91         -0.90111709        0.042862
        92         -0.90111821        0.042862
        93         -0.90115210        0.042862
        94         -0.90115499        0.042862
        95         -0.90116859        0.036743
        96         -0.90121104        0.036743
        97         -0.90122458        0.036743
        98         -0.90123254        0.036743
        99         -0.90124943        0.034020
       100         -0.90124963        0.034020
       101         -0.90128546        0.034020
       102         -0.90129129        0.034020
       103         -0.90131862        0.034020
       104         -0.90132782        0.031498
       105         -0.90136229        0.031498
       106         -0.90141466        0.031498
       107         -0.90141772        0.031498
       108         -0.90145438        0.031498
       109         -0.90148207        0.031498
       110         -0.90148672        0.029163
       111         -0.90149455        0.029163
       112         -0.90149562        0.029163
       113         -0.90150671        0.029163
       114         -0.90153024        0.029163
       115         -0.90155181        0.025000
       116         -0.90155230        0.025000
       117         -0.90156410        0.025000
       118         -0.90158003        0.025000
       119         -0.90159313        0.025000
       120         -0.90159910        0.025000
       121         -0.90160769        0.025000
       122         -0.90161201        0.025000
       123         -0.90161623        0.025000
       124         -0.90162805        0.023147
       125         -0.90164596        0.023147
       126         -0.90164802        0.023147
       127         -0.90165459        0.023147
       128         -0.90166892        0.023147
       129         -0.90167249        0.023147
       130         -0.90168493        0.023147
       131         -0.90168655        0.021431
       132         -0.90168773        0.021431
       133         -0.90172447        0.021431
       134         -0.90173302        0.021431
       135         -0.90173974        0.021431
       136         -0.90175531        0.021431
       137         -0.90175858        0.021431
       138         -0.90177699        0.021431
       139         -0.90177734        0.021431
       140         -0.90177763        0.021431
       141         -0.90178229        0.021431
       142         -0.90180382        0.021431
       143         -0.90180975        0.021431
       144         -0.90181382        0.021431
       145         -0.90182241        0.021431
       146         -0.90182936        0.021431
       147         -0.90183460        0.021431
       148         -0.90183611        0.021431
       149         -0.90185027        0.021431
       150         -0.90185748        0.018372
       151         -0.90185958        0.018372
       152         -0.90188819        0.018372
       153         -0.90190035        0.018372
       154         -0.90190829        0.018372
       155         -0.90193044        0.018372
       156         -0.90193669        0.018372
       157         -0.90193923        0.018372
       158         -0.90194241        0.018372
       159         -0.90194805        0.018372
       160         -0.90195603        0.018372
       161         -0.90196476        0.018372
       162         -0.90198155        0.018372
       163         -0.90198297        0.018372
       164         -0.90198479        0.018372
       165         -0.90199630        0.018372
       166         -0.90200110        0.018372
       167         -0.90202441        0.018372
       168         -0.90202597        0.018372
       169         -0.90203855        0.018372
       170         -0.90204147        0.018372
       171         -0.90204610        0.018372
       172         -0.90204815        0.018372
       173         -0.90206277        0.018372
       174         -0.90208242        0.018372
       175         -0.90210296        0.018372
       176         -0.90210490        0.018372
       177         -0.90211222        0.018372
       178         -0.90212376        0.018372
       179         -0.90213138        0.018372
       180         -0.90213354        0.018372
       181         -0.90213533        0.018372
       182         -0.90214338        0.018372
       183         -0.90214341        0.018372
       184         -0.90214926        0.018372
       185         -0.90215078        0.018372
       186         -0.90215762        0.018372
       187         -0.90217193        0.018372
       188         -0.90217398        0.018372
       189         -0.90218446        0.018372
       190         -0.90218447        0.018372
       191         -0.90218759        0.018372
       192         -0.90220013        0.018372
       193         -0.90221111        0.018372
       194         -0.90221172        0.018372
       195         -0.90221370        0.018372
       196         -0.90221580        0.018372
       197         -0.90221765        0.018372
       198         -0.90223019        0.018372
       199         -0.90223858        0.018372
       200         -0.90225147        0.018372
       201         -0.90225516        0.018372
       202         -0.90225630        0.018372
       203         -0.90225854        0.018372
       204         -0.90227463        0.018372
       205         -0.90227848        0.018372
       206         -0.90228435        0.018372
       207         -0.90228481        0.018372
       208         -0.90229631        0.018372
       209         -0.90232028        0.018372
       210         -0.90234236        0.018372
       211         -0.90234326        0.018372
       212         -0.90235214        0.018372
       213         -0.90236520        0.018372
       214         -0.90236691        0.018372
       215         -0.90239181        0.018372
       216         -0.90239443        0.018372
       217         -0.90239595        0.018372
       218         -0.90240313        0.018372
       219         -0.90241774        0.018372
       220         -0.90242751        0.017010
       221         -0.90243686        0.017010
       222         -0.90244548        0.017010
       223         -0.90245702        0.017010
       224         -0.90246273        0.017010
       225         -0.90246727        0.017010
       226         -0.90248846        0.017010
       227         -0.90251050        0.017010
       228         -0.90251171        0.017010
       229         -0.90251653        0.017010
       230         -0.90252337        0.017010
       231         -0.90252875        0.017010
       232         -0.90253411        0.017010
       233         -0.90253489        0.017010
       234         -0.90255688        0.017010
       235         -0.90255949        0.017010
       236         -0.90256742        0.017010
       237         -0.90256756        0.017010
       238         -0.90257288        0.017010
       239         -0.90257462        0.017010
       240         -0.90258798        0.017010
       241         -0.90259195        0.015749
       242         -0.90260640        0.015749
       243         -0.90261224        0.015749
       244         -0.90262594        0.015749
       245         -0.90262636        0.015749
       246         -0.90263612        0.015749
       247         -0.90263876        0.015749
       248         -0.90265034        0.015749
       249         -0.90266619        0.015749
       250         -0.90266729        0.015749
       251         -0.90267521        0.015749
       252         -0.90267985        0.015749
       253         -0.90268004        0.015749
       254         -0.90268273        0.015749
       255         -0.90268498        0.015749
       256         -0.90269501        0.015749
       257         -0.90270088        0.015749
       258         -0.90270320        0.015749
       259         -0.90270778        0.015749
       260         -0.90271800        0.015749
       261         -0.90272502        0.015749
       262         -0.90273272        0.015749
       263         -0.90273687        0.015749
       264         -0.90274329        0.015749
       265         -0.90274538        0.015749
       266         -0.90274807        0.014582
       267         -0.90275057        0.014582
       268         -0.90275932        0.014582
       269         -0.90276106        0.014582
       270         -0.90276466        0.014582
       271         -0.90276734        0.014582
       272         -0.90277306        0.014582
       273         -0.90277327        0.014582
       274         -0.90277470        0.014582
       275         -0.90278055        0.014582
       276         -0.90279452        0.014582
       277         -0.90279525        0.013501
       278         -0.90279626        0.013501
       279         -0.90279694        0.013501
       280         -0.90279837        0.013501
       281         -0.90281099        0.013501
       282         -0.90281145        0.013501
       283         -0.90281228        0.013501
       284         -0.90281341        0.013501
       285         -0.90281709        0.013501
       286         -0.90282946        0.013501
       287         -0.90283092        0.013501
       288         -0.90283426        0.013501
       289         -0.90284304        0.013501
       290         -0.90285107        0.013501
       291         -0.90285409        0.013501
       292         -0.90285539        0.013501
       293         -0.90286281        0.013501
       294         -0.90286759        0.013501
       295         -0.90287086        0.013501
       296         -0.90287793        0.013501
       297         -0.90288071        0.013501
       298         -0.90288316        0.013501
       299         -0.90288542        0.013501
       300         -0.90288736        0.013501
       301         -0.90289324        0.013501
       302         -0.90290855        0.013501
       303         -0.90292006        0.013501
       304         -0.90292710        0.013501
       305         -0.90292754        0.012500
       306         -0.90293013        0.012500
       307         -0.90293494        0.012500
       308         -0.90293992        0.012500
       309         -0.90294821        0.012500
       310         -0.90295633        0.012500
       311         -0.90295956        0.012500
       312         -0.90297236        0.012500
       313         -0.90297276        0.012500
       314         -0.90297372        0.012500
       315         -0.90297811        0.012500
       316         -0.90297874        0.012500
       317         -0.90298817        0.012500
       318         -0.90299000        0.012500
       319         -0.90299521        0.012500
       320         -0.90299574        0.012500
       321         -0.90301150        0.012500
       322         -0.90302294        0.012500
       323         -0.90302762        0.012500
       324         -0.90302784        0.012500
       325         -0.90303021        0.012500
       326         -0.90303051        0.012500
       327         -0.90303949        0.012500
       328         -0.90304203        0.012500
       329         -0.90304517        0.012500
       330         -0.90304814        0.011573
       331         -0.90304856        0.011573
       332         -0.90304881        0.011573
       333         -0.90305023        0.011573
       334         -0.90305169        0.011573
       335         -0.90305435        0.011573
       336         -0.90305843        0.011573
       337         -0.90306388        0.011573
       338         -0.90308134        0.011573
       339         -0.90308937        0.011573
       340         -0.90309525        0.011573
       341         -0.90309597        0.011573
       342         -0.90309733        0.011573
       343         -0.90311003        0.011573
       344         -0.90311147        0.011573
       345         -0.90311923        0.011573
       346         -0.90312326        0.011573
       347         -0.90312557        0.011573
       348         -0.90312586        0.011573
       349         -0.90313001        0.011573
       350         -0.90314201        0.011573
       351         -0.90314234        0.011573
       352         -0.90314686        0.011573
       353         -0.90315120        0.011573
       354         -0.90315392        0.011573
       355         -0.90315504        0.011573
       356         -0.90316679        0.011573
       357         -0.90316694        0.011573
       358         -0.90317020        0.011573
       359         -0.90318426        0.011573
       360         -0.90318592        0.011573
       361         -0.90318658        0.011573
       362         -0.90319148        0.011573
       363         -0.90319734        0.011573
       364         -0.90320090        0.011573
       365         -0.90320461        0.011573
       366         -0.90320552        0.011573
       367         -0.90320766        0.011573
       368         -0.90320998        0.011573
       369         -0.90321379        0.011573
       370         -0.90321556        0.011573
       371         -0.90321834        0.011573
       372         -0.90322006        0.011573
       373         -0.90322345        0.011573
       374         -0.90322895        0.011573
       375         -0.90323456        0.011573
       376         -0.90323978        0.011573
       377         -0.90324212        0.011573
       378         -0.90325677        0.011573
       379         -0.90326208        0.011573
       380         -0.90327031        0.011573
       381         -0.90327800        0.011573
       382         -0.90328640        0.011573
       383         -0.90328806        0.011573
       384         -0.90329102        0.011573
       385         -0.90329440        0.011573
       386         -0.90329691        0.011573
       387         -0.90329954        0.011573
       388         -0.90330087        0.011573
       389         -0.90330396        0.011573
       390         -0.90330607        0.011573
       391         -0.90331415        0.011573
       392         -0.90331707        0.011573
       393         -0.90331708        0.011573
       394         -0.90331922        0.011573
       395         -0.90332803        0.011573
       396         -0.90332975        0.011573
       397         -0.90334485        0.011573
       398         -0.90335137        0.011573
       399         -0.90335203        0.011573
       400         -0.90335585        0.011573
       401         -0.90335646        0.011573
       402         -0.90335851        0.011573
       403         -0.90337565        0.011573
       404         -0.90337997        0.011573
       405         -0.90338505        0.011573
       406         -0.90338524        0.011573
       407         -0.90339485        0.011573
       408         -0.90339554        0.011573
       409         -0.90339566        0.011573
       410         -0.90339950        0.011573
       411         -0.90340788        0.011573
       412         -0.90341065        0.011573
       413         -0.90341351        0.011573
       414         -0.90341410        0.011573
       415         -0.90341461        0.011573
       416         -0.90341935        0.011573
       417         -0.90342078        0.011573
       418         -0.90342404        0.011573
       419         -0.90343224        0.011573
       420         -0.90343860        0.011573
       421         -0.90344136        0.011573
       422         -0.90344521        0.011573
       423         -0.90344763        0.011573
       424         -0.90345947        0.011573
       425         -0.90345982        0.011573
       426         -0.90347465        0.011573
       427         -0.90347789        0.011573
       428         -0.90348660        0.011573
       429         -0.90348778        0.011573
       430         -0.90349336        0.011573
       431         -0.90349880        0.011573
       432         -0.90350352        0.011573
       433         -0.90350699        0.011573
       434         -0.90351182        0.011573
       435         -0.90351852        0.011573
       436         -0.90351931        0.011573
       437         -0.90352537        0.011573
       438         -0.90352572        0.011573
       439         -0.90352914        0.011573
       440         -0.90353523        0.011573
       441         -0.90353630        0.011573
       442         -0.90353920        0.011573
       443         -0.90354145        0.011573
       444         -0.90354303        0.011573
       445         -0.90355223        0.011573
       446         -0.90355494        0.011573
       447         -0.90356876        0.011573
       448         -0.90356902        0.011573
       449         -0.90357043        0.011573
       450         -0.90358160        0.011573
       451         -0.90359259        0.011573
       452         -0.90360291        0.011573
       453         -0.90360668        0.011573
       454         -0.90360864        0.011573
       455         -0.90361203        0.011573
       456         -0.90361901        0.011573
       457         -0.90362575        0.011573
       458         -0.90362583        0.011573
       459         -0.90362964        0.011573
       460         -0.90363354        0.011573
       461         -0.90363466        0.011573
       462         -0.90364233        0.011573
       463         -0.90365257        0.011573
       464         -0.90365885        0.011573
       465         -0.90366540        0.011573
       466         -0.90367413        0.011573
       467         -0.90367417        0.011573
       468         -0.90368179        0.011573
       469         -0.90368292        0.011573
       470         -0.90368632        0.011573
       471         -0.90369427        0.011573
       472         -0.90369482        0.011573
       473         -0.90370159        0.011573
       474         -0.90370204        0.011573
       475         -0.90370848        0.011573
       476         -0.90371764        0.011573
       477         -0.90372042        0.011573
       478         -0.90372599        0.011573
       479         -0.90372662        0.011573
       480         -0.90372911        0.011573
       481         -0.90373824        0.011573
       482         -0.90374455        0.011573
       483         -0.90374766        0.011573
       484         -0.90375820        0.011573
       485         -0.90376403        0.011573
       486         -0.90376850        0.011573
       487         -0.90377281        0.011573
       488         -0.90377318        0.011573
       489         -0.90377772        0.011573
       490         -0.90377829        0.011573
       491         -0.90378142        0.011573
       492         -0.90378440        0.011573
       493         -0.90379032        0.011573
       494         -0.90380184        0.011573
       495         -0.90380280        0.011573
       496         -0.90380602        0.011573
       497         -0.90380832        0.011573
       498         -0.90381440        0.011573
       499         -0.90381554        0.011573
       500         -0.90382199        0.011573
       501         -0.90382629        0.011573
       502         -0.90383814        0.011573
       503         -0.90383817        0.011573
       504         -0.90385270        0.011573
       505         -0.90385689        0.011573
       506         -0.90385998        0.011573
       507         -0.90386761        0.011573
       508         -0.90387094        0.011573
       509         -0.90387753        0.011573
       510         -0.90388258        0.011573
       511         -0.90388452        0.011573
       512         -0.90388523        0.011573
       513         -0.90389043        0.011573
       514         -0.90389140        0.011573
       515         -0.90389485        0.011573
       516         -0.90389765        0.011573
       517         -0.90390457        0.011573
       518         -0.90390878        0.011573
       519         -0.90390960        0.011573
       520         -0.90391021        0.011573
       521         -0.90391713        0.011573
       522         -0.90391941        0.011573
       523         -0.90392554        0.011573
       524         -0.90392617        0.011573
       525         -0.90393491        0.011573
       526         -0.90393572        0.011573
       527         -0.90394303        0.011573
       528         -0.90395524        0.011573
       529         -0.90396009        0.011573
       530         -0.90396185        0.011573
       531         -0.90397113        0.011573
       532         -0.90397723        0.011573
       533         -0.90397803        0.011573
       534         -0.90397997        0.011573
       535         -0.90398148        0.011573
       536         -0.90398496        0.011573
       537         -0.90399390        0.011573
       538         -0.90401046        0.011573
       539         -0.90401440        0.011573
       540         -0.90401495        0.011573
       541         -0.90401922        0.011573
       542         -0.90402367        0.011573
       543         -0.90402873        0.011573
       544         -0.90402952        0.011573
       545         -0.90403130        0.011573
       546         -0.90404280        0.011573
       547         -0.90404812        0.011573
       548         -0.90404818        0.011573
       549         -0.90405328        0.011573
       550         -0.90405673        0.011573
       551         -0.90405835        0.011573
       552         -0.90405947        0.011573
       553         -0.90406459        0.011573
       554         -0.90406534        0.011573
       555         -0.90407726        0.011573
       556         -0.90409085        0.011573
       557         -0.90409173        0.011573
       558         -0.90409569        0.011573
       559         -0.90410071        0.011573
       560         -0.90410347        0.011573
       561         -0.90410549        0.011573
       562         -0.90410614        0.011573
       563         -0.90410691        0.011573
       564         -0.90410994        0.011573
       565         -0.90411644        0.011573
       566         -0.90411981        0.011573
       567         -0.90412264        0.011573
       568         -0.90412804        0.011573
       569         -0.90413525        0.011573
       570         -0.90413914        0.011573
       571         -0.90414625        0.011573
       572         -0.90415315        0.011573
       573         -0.90415792        0.011573
       574         -0.90416212        0.011573
       575         -0.90416440        0.011573
       576         -0.90416565        0.011573
       577         -0.90416932        0.011573
       578         -0.90417268        0.011573
       579         -0.90417875        0.011573
       580         -0.90418206        0.011573
       581         -0.90419363        0.011573
       582         -0.90419609        0.011573
       583         -0.90419689        0.011573
       584         -0.90420175        0.011573
       585         -0.90420661        0.011573
       586         -0.90420863        0.011573
       587         -0.90421116        0.011573
       588         -0.90421559        0.011573
       589         -0.90421574        0.011573
       590         -0.90421703        0.011573
       591         -0.90421866        0.011573
       592         -0.90421873        0.011573
       593         -0.90422102        0.011573
       594         -0.90422597        0.011573
       595         -0.90423193        0.011573
       596         -0.90423310        0.011573
       597         -0.90423524        0.011573
       598         -0.90423747        0.011573
       599         -0.90424363        0.011573
       600         -0.90424463        0.011573
       601         -0.90425241        0.011573
       602         -0.90425551        0.011573
       603         -0.90426665        0.011573
       604         -0.90426999        0.011573
       605         -0.90427583        0.011573
       606         -0.90428219        0.011573
       607         -0.90428573        0.011573
       608         -0.90428950        0.011573
       609         -0.90429077        0.011573
       610         -0.90429460        0.011573
       611         -0.90430087        0.011573
       612         -0.90430572        0.011573
       613         -0.90430784        0.011573
       614         -0.90430942        0.011573
       615         -0.90431253        0.011573
       616         -0.90431514        0.011573
       617         -0.90431616        0.011573
       618         -0.90432537        0.011573
       619         -0.90432561        0.011573
       620         -0.90432839        0.011573
       621         -0.90433130        0.011573
       622         -0.90433984        0.011573
       623         -0.90434901        0.011573
       624         -0.90435265        0.011573
       625         -0.90435546        0.011573
       626         -0.90435814        0.011573
       627         -0.90436115        0.011573
       628         -0.90436241        0.011573
       629         -0.90436742        0.011573
       630         -0.90436871        0.011573
       631         -0.90437128        0.011573
       632         -0.90437777        0.011573
       633         -0.90438174        0.011573
       634         -0.90438694        0.011573
       635         -0.90439012        0.011573
       636         -0.90439835        0.011573
       637         -0.90440165        0.011573
       638         -0.90441494        0.011573
       639         -0.90442543        0.011573
       640         -0.90442673        0.011573
       641         -0.90442931        0.011573
       642         -0.90442986        0.011573
       643         -0.90443995        0.011573
       644         -0.90444561        0.011573
       645         -0.90445173        0.011573
       646         -0.90445222        0.011573
       647         -0.90445323        0.011573
       648         -0.90446114        0.011573
       649         -0.90446386        0.011573
       650         -0.90446886        0.011573
       651         -0.90447777        0.011573
       652         -0.90447959        0.011573
       653         -0.90448243        0.011573
       654         -0.90448642        0.011573
       655         -0.90448814        0.011573
       656         -0.90449094        0.011573
       657         -0.90449593        0.011573
       658         -0.90450502        0.011573
       659         -0.90452001        0.011573
       660         -0.90452304        0.011573
       661         -0.90452338        0.011573
       662         -0.90452396        0.011573
       663         -0.90452556        0.011573
       664         -0.90453967        0.011573
       665         -0.90454304        0.011573
       666         -0.90454369        0.011573
       667         -0.90455138        0.011573
       668         -0.90455713        0.011573
       669         -0.90456415        0.011573
       670         -0.90456499        0.011573
       671         -0.90456501        0.011573
       672         -0.90456662        0.011573
       673         -0.90456836        0.011573
       674         -0.90457421        0.011573
       675         -0.90457569        0.011573
       676         -0.90458281        0.011573
       677         -0.90458741        0.010716
       678         -0.90458794        0.010716
       679         -0.90459428        0.010716
       680         -0.90459589        0.010716
       681         -0.90459757        0.010716
       682         -0.90460627        0.010716
       683         -0.90460961        0.010716
       684         -0.90462473        0.010716
       685         -0.90463032        0.010716
       686         -0.90463538        0.010716
       687         -0.90464107        0.010716
       688         -0.90465306        0.010716
       689         -0.90466154        0.010716
       690         -0.90466662        0.010716
       691         -0.90466850        0.010716
       692         -0.90467084        0.010716
       693         -0.90467736        0.010716
       694         -0.90468324        0.010716
       695         -0.90468819        0.010716
       696         -0.90469683        0.010716
       697         -0.90469792        0.010716
       698         -0.90470443        0.010716
       699         -0.90470965        0.010716
       700         -0.90471290        0.010716
       701         -0.90471332        0.010716
       702         -0.90471540        0.010716
       703         -0.90471770        0.010716
       704         -0.90471804        0.010716
       705         -0.90472057        0.010716
       706         -0.90472081        0.010716
       707         -0.90472279        0.010716
       708         -0.90472595        0.010716
       709         -0.90472969        0.010716
       710         -0.90472999        0.010716
       711         -0.90473073        0.010716
       712         -0.90473313        0.010716
       713         -0.90473666        0.010716
       714         -0.90473733        0.010716
       715         -0.90474888        0.010716
       716         -0.90475524        0.010716
       717         -0.90476532        0.010716
       718         -0.90476933        0.010716
       719         -0.90477147        0.010716
       720         -0.90478022        0.010716
       721         -0.90478398        0.010716
       722         -0.90479392        0.010716
       723         -0.90479782        0.010716
       724         -0.90480086        0.010716
       725         -0.90480693        0.010716
       726         -0.90480925        0.010716
       727         -0.90481050        0.010716
       728         -0.90481088        0.010716
       729         -0.90481541        0.010716
       730         -0.90481769        0.010716
       731         -0.90481770        0.010716
       732         -0.90482106        0.010716
       733         -0.90482350        0.010716
       734         -0.90482570        0.010716
       735         -0.90482938        0.010716
       736         -0.90484052        0.010716
       737         -0.90484848        0.010716
       738         -0.90485162        0.010716
       739         -0.90485787        0.010716
       740         -0.90485797        0.010716
       741         -0.90485877        0.010716
       742         -0.90486539        0.010716
       743         -0.90486944        0.010716
       744         -0.90487723        0.010716
       745         -0.90487726        0.010716
       746         -0.90488441        0.010716
       747         -0.90488621        0.010716
       748         -0.90488653        0.010716
       749         -0.90488772        0.010716
       750         -0.90488852        0.010716
       751         -0.90489251        0.010716
       752         -0.90489433        0.010716
       753         -0.90490166        0.010716
       754         -0.90490293        0.010716
       755         -0.90490375        0.010716
       756         -0.90491097        0.010716
       757         -0.90492225        0.010716
       758         -0.90492562        0.010716
       759         -0.90493407        0.010716
       760         -0.90493453        0.010716
       761         -0.90493486        0.010716
       762         -0.90493701        0.010716
       763         -0.90494028        0.010716
       764         -0.90494516        0.010716
       765         -0.90495186        0.010716
       766         -0.90495463        0.010716
       767         -0.90495595        0.010716
       768         -0.90496548        0.010716
       769         -0.90496598        0.010716
       770         -0.90496743        0.010716
       771         -0.90497037        0.010716
       772         -0.90497393        0.010716
       773         -0.90497470        0.010716
       774         -0.90497613        0.010716
       775         -0.90498821        0.010716
       776         -0.90499356        0.010716
       777         -0.90499882        0.010716
       778         -0.90500032        0.010716
       779         -0.90500479        0.010716
       780         -0.90500506        0.010716
       781         -0.90501570        0.010716
       782         -0.90501715        0.010716
       783         -0.90501726        0.010716
       784         -0.90501882        0.010716
       785         -0.90502707        0.010716
       786         -0.90502982        0.010716
       787         -0.90503294        0.010716
       788         -0.90503605        0.010716
       789         -0.90503611        0.010716
       790         -0.90503987        0.010716
       791         -0.90504105        0.010716
       792         -0.90504416        0.010716
       793         -0.90505680        0.010716
       794         -0.90506114        0.010716
       795         -0.90506407        0.010716
       796         -0.90506989        0.010716
       797         -0.90507711        0.010716
       798         -0.90507746        0.010716
       799         -0.90508260        0.010716
       800         -0.90508599        0.010716
       801         -0.90509701        0.010716
       802         -0.90510117        0.010716
       803         -0.90510444        0.010716
       804         -0.90510606        0.010716
       805         -0.90511023        0.010716
       806         -0.90511170        0.010716
       807         -0.90511882        0.010716
       808         -0.90512222        0.010716
       809         -0.90512320        0.010716
       810         -0.90512719        0.010716
       811         -0.90512987        0.010716
       812         -0.90513408        0.010716
       813         -0.90513598        0.010716
       814         -0.90514686        0.010716
       815         -0.90515203        0.010716
       816         -0.90515236        0.010716
       817         -0.90515453        0.010716
       818         -0.90515570        0.010716
       819         -0.90515712        0.010716
       820         -0.90515737        0.010716
       821         -0.90515739        0.010716
       822         -0.90516088        0.010716
       823         -0.90516755        0.010716
       824         -0.90516765        0.010716
       825         -0.90516818        0.010716
       826         -0.90517530        0.010716
       827         -0.90517628        0.010716
       828         -0.90517728        0.010716
       829         -0.90517853        0.010716
       830         -0.90518324        0.010716
       831         -0.90518378        0.010716
       832         -0.90518708        0.010716
       833         -0.90519037        0.010716
       834         -0.90519792        0.010716
       835         -0.90519971        0.010716
       836         -0.90520411        0.010716
       837         -0.90520876        0.010716
       838         -0.90521160        0.010716
       839         -0.90521530        0.010716
       840         -0.90522186        0.010716
       841         -0.90522234        0.010716
       842         -0.90522385        0.010716
       843         -0.90522453        0.010716
       844         -0.90523536        0.010716
       845         -0.90524659        0.010716
       846         -0.90524745        0.010716
       847         -0.90525415        0.010716
       848         -0.90526398        0.010716
       849         -0.90527061        0.010716
       850         -0.90527203        0.010716
       851         -0.90527477        0.010716
       852         -0.90527661        0.010716
       853         -0.90528004        0.010716
       854         -0.90528211        0.010716
       855         -0.90528812        0.009921
       856         -0.90529355        0.009921
       857         -0.90529809        0.009921
       858         -0.90530148        0.009921
       859         -0.90530282        0.009921
       860         -0.90530439        0.009921
       861         -0.90531209        0.009921
       862         -0.90531393        0.009921
       863         -0.90531463        0.009921
       864         -0.90531643        0.009921
       865         -0.90531948        0.009921
       866         -0.90532615        0.009921
       867         -0.90533316        0.009921
       868         -0.90533482        0.009921
       869         -0.90533566        0.009921
       870         -0.90533993        0.009921
       871         -0.90534008        0.009921
       872         -0.90534223        0.009921
       873         -0.90534312        0.009921
       874         -0.90534416        0.009921
       875         -0.90534466        0.009921
       876         -0.90534672        0.009921
       877         -0.90535113        0.009921
       878         -0.90535193        0.009921
       879         -0.90535734        0.009921
       880         -0.90536636        0.009921
       881         -0.90537122        0.009921
       882         -0.90537438        0.009921
       883         -0.90537627        0.009921
       884         -0.90537701        0.009921
       885         -0.90538118        0.009921
       886         -0.90538501        0.009921
       887         -0.90538861        0.009921
       888         -0.90539225        0.009921
       889         -0.90539441        0.009921
       890         -0.90540585        0.009921
       891         -0.90540773        0.009921
       892         -0.90541083        0.009921
       893         -0.90541617        0.009921
       894         -0.90541972        0.009921
       895         -0.90542215        0.009921
       896         -0.90542783        0.009921
       897         -0.90543949        0.009921
       898         -0.90544094        0.009921
       899         -0.90544115        0.009921
       900         -0.90544140        0.009921
       901         -0.90544347        0.009921
       902         -0.90544411        0.009921
       903         -0.90544681        0.009921
       904         -0.90545104        0.009921
       905         -0.90545546        0.009921
       906         -0.90545800        0.009921
       907         -0.90546607        0.009921
       908         -0.90546683        0.009921
       909         -0.90546845        0.009921
       910         -0.90547007        0.009921
       911         -0.90547198        0.009921
       912         -0.90547476        0.009921
       913         -0.90548311        0.009921
       914         -0.90548632        0.009921
       915         -0.90549075        0.009921
       916         -0.90549252        0.009921
       917         -0.90549564        0.009921
       918         -0.90549671        0.009921
       919         -0.90550055        0.009921
       920         -0.90550997        0.009921
       921         -0.90551508        0.009921
       922         -0.90551568        0.009921
       923         -0.90551833        0.009921
       924         -0.90552666        0.009921
       925         -0.90552713        0.009921
       926         -0.90553155        0.009921
       927         -0.90553855        0.009921
       928         -0.90554120        0.009921
       929         -0.90554359        0.009921
       930         -0.90554965        0.009921
       931         -0.90555704        0.009921
       932         -0.90556569        0.009921
       933         -0.90556713        0.009921
       934         -0.90556806        0.009921
       935         -0.90557097        0.009921
       936         -0.90558023        0.009921
       937         -0.90558480        0.009921
       938         -0.90558540        0.009921
       939         -0.90559078        0.009921
       940         -0.90559113        0.009921
       941         -0.90559379        0.009921
       942         -0.90559433        0.009921
       943         -0.90559590        0.009921
       944         -0.90559977        0.009921
       945         -0.90559981        0.009921
       946         -0.90560008        0.009921
       947         -0.90560020        0.009921
       948         -0.90560325        0.009921
       949         -0.90560379        0.009921
       950         -0.90561268        0.009921
       951         -0.90561417        0.009921
       952         -0.90561623        0.009921
       953         -0.90561844        0.009921
       954         -0.90562073        0.009921
       955         -0.90562116        0.009921
       956         -0.90562215        0.009921
       957         -0.90562446        0.009921
       958         -0.90562668        0.009921
       959         -0.90563354        0.009921
       960         -0.90563588        0.009921
       961         -0.90564397        0.009921
       962         -0.90564468        0.009921
       963         -0.90564967        0.009921
       964         -0.90565200        0.009921
       965         -0.90565689        0.009921
       966         -0.90566554        0.009921
       967         -0.90566757        0.009921
       968         -0.90566802        0.009921
       969         -0.90567155        0.009921
       970         -0.90567259        0.009921
       971         -0.90567295        0.009921
       972         -0.90567350        0.009921
       973         -0.90567909        0.009921
       974         -0.90568075        0.009921
       975         -0.90568467        0.009921
       976         -0.90568682        0.009921
       977         -0.90568969        0.009921
       978         -0.90569435        0.009921
       979         -0.90569929        0.009921
       980         -0.90570628        0.009921
       981         -0.90571617        0.009921
       982         -0.90572444        0.009921
       983         -0.90572577        0.009921
       984         -0.90573328        0.009921
       985         -0.90573437        0.009921
       986         -0.90573561        0.009921
       987         -0.90573633        0.009921
       988         -0.90573840        0.009921
       989         -0.90574167        0.009921
       990         -0.90574866        0.009921
       991         -0.90575041        0.009921
       992         -0.90575732        0.009921
       993         -0.90576700        0.009921
       994         -0.90577058        0.009921
       995         -0.90577362        0.009921
       996         -0.90577431        0.009921
       997         -0.90577539        0.009921
       998         -0.90578145        0.009921
       999         -0.90578560        0.009921
      1000         -0.90579441        0.009921
      1001         -0.90579502        0.009921
      1002         -0.90580051        0.009921
      1003         -0.90580148        0.009921
      1004         -0.90580822        0.009921
      1005         -0.90581203        0.009921
      1006         -0.90581556        0.009921
      1007         -0.90583044        0.009921
      1008         -0.90583128        0.009921
      1009         -0.90583418        0.009921
      1010         -0.90584177        0.009921
      1011         -0.90584472        0.009921
      1012         -0.90585568        0.009921
      1013         -0.90586277        0.009921
      1014         -0.90586402        0.009921
      1015         -0.90586420        0.009921
      1016         -0.90586588        0.009921
      1017         -0.90587049        0.009921
      1018         -0.90587541        0.009921
      1019         -0.90588440        0.009921
      1020         -0.90588728        0.009921
      1021         -0.90588791        0.009921
      1022         -0.90589291        0.009921
      1023         -0.90589400        0.009921
      1024         -0.90589946        0.009921
      1025         -0.90590004        0.009921
      1026         -0.90590428        0.009186
      1027         -0.90590810        0.009186
      1028         -0.90591797        0.009186
      1029         -0.90591809        0.009186
      1030         -0.90592044        0.009186
      1031         -0.90592285        0.009186
      1032         -0.90592331        0.009186
      1033         -0.90592893        0.009186
      1034         -0.90593044        0.009186
      1035         -0.90593236        0.009186
      1036         -0.90594125        0.009186
      1037         -0.90594356        0.009186
      1038         -0.90595055        0.009186
      1039         -0.90595261        0.009186
      1040         -0.90595722        0.009186
      1041         -0.90596634        0.009186
      1042         -0.90596978        0.009186
      1043         -0.90597041        0.009186
      1044         -0.90597648        0.009186
      1045         -0.90597942        0.009186
      1046         -0.90598349        0.009186
      1047         -0.90598778        0.009186
      1048         -0.90599182        0.009186
      1049         -0.90599797        0.009186
      1050         -0.90600035        0.009186
      1051         -0.90600304        0.009186
      1052         -0.90600529        0.009186
      1053         -0.90600655        0.009186
      1054         -0.90600988        0.009186
      1055         -0.90601674        0.009186
      1056         -0.90602573        0.009186
      1057         -0.90602857        0.009186
      1058         -0.90603219        0.009186
      1059         -0.90603485        0.009186
      1060         -0.90604150        0.009186
      1061         -0.90604184        0.009186
      1062         -0.90604350        0.009186
      1063         -0.90604451        0.009186
      1064         -0.90605338        0.009186
      1065         -0.90605657        0.009186
      1066         -0.90606084        0.009186
      1067         -0.90606382        0.009186
      1068         -0.90606538        0.009186
      1069         -0.90606769        0.009186
      1070         -0.90606923        0.009186
      1071         -0.90607355        0.009186
      1072         -0.90608183        0.009186
      1073         -0.90608700        0.009186
      1074         -0.90608835        0.009186
      1075         -0.90608914        0.009186
      1076         -0.90608942        0.009186
      1077         -0.90609156        0.009186
      1078         -0.90609214        0.009186
      1079         -0.90609328        0.009186
      1080         -0.90609662        0.009186
      1081         -0.90610151        0.009186
      1082         -0.90610354        0.009186
      1083         -0.90611185        0.009186
      1084         -0.90611636        0.009186
      1085         -0.90611879        0.009186
      1086         -0.90611916        0.009186
      1087         -0.90612225        0.009186
      1088         -0.90612802        0.009186
      1089         -0.90612979        0.009186
      1090         -0.90612980        0.009186
      1091         -0.90613439        0.009186
      1092         -0.90614122        0.009186
      1093         -0.90615244        0.009186
      1094         -0.90615384        0.009186
      1095         -0.90615518        0.009186
      1096         -0.90616275        0.009186
      1097         -0.90616375        0.009186
      1098         -0.90616631        0.009186
      1099         -0.90616981        0.009186
      1100         -0.90617393        0.009186
      1101         -0.90617766        0.009186
      1102         -0.90617898        0.009186
      1103         -0.90618519        0.009186
      1104         -0.90619186        0.009186
      1105         -0.90619531        0.009186
      1106         -0.90620620        0.009186
      1107         -0.90620863        0.009186
      1108         -0.90621041        0.009186
      1109         -0.90621299        0.009186
      1110         -0.90621368        0.009186
      1111         -0.90621446        0.009186
      1112         -0.90621643        0.009186
      1113         -0.90622001        0.009186
      1114         -0.90622791        0.009186
      1115         -0.90622861        0.009186
      1116         -0.90623833        0.009186
      1117         -0.90624162        0.009186
      1118         -0.90624675        0.009186
      1119         -0.90624911        0.009186
      1120         -0.90625360        0.009186
      1121         -0.90625879        0.009186
      1122         -0.90626344        0.009186
      1123         -0.90626558        0.009186
      1124         -0.90626620        0.009186
      1125         -0.90626958        0.009186
      1126         -0.90627358        0.009186
      1127         -0.90627501        0.009186
      1128         -0.90627782        0.009186
      1129         -0.90628299        0.009186
      1130         -0.90628636        0.009186
      1131         -0.90629020        0.009186
      1132         -0.90629194        0.009186
      1133         -0.90630140        0.009186
      1134         -0.90630414        0.009186
      1135         -0.90631164        0.009186
      1136         -0.90631280        0.009186
      1137         -0.90631690        0.009186
      1138         -0.90631917        0.009186
      1139         -0.90632604        0.009186
      1140         -0.90632625        0.009186
      1141         -0.90633162        0.009186
      1142         -0.90633682        0.009186
      1143         -0.90634154        0.009186
      1144         -0.90634217        0.009186
      1145         -0.90634626        0.009186
      1146         -0.90635206        0.009186
      1147         -0.90635991        0.009186
      1148         -0.90636198        0.009186
      1149         -0.90636628        0.009186
      1150         -0.90636682        0.009186
      1151         -0.90637094        0.009186
      1152         -0.90637537        0.009186
      1153         -0.90638209        0.009186
      1154         -0.90638693        0.009186
      1155         -0.90639293        0.009186
      1156         -0.90639475        0.009186
      1157         -0.90639941        0.009186
      1158         -0.90639974        0.009186
      1159         -0.90640013        0.009186
      1160         -0.90640237        0.009186
      1161         -0.90640304        0.009186
      1162         -0.90640496        0.009186
      1163         -0.90640633        0.009186
      1164         -0.90640726        0.009186
      1165         -0.90640744        0.009186
      1166         -0.90641350        0.009186
      1167         -0.90641700        0.009186
      1168         -0.90641755        0.009186
      1169         -0.90641873        0.009186
      1170         -0.90642491        0.009186
      1171         -0.90642992        0.009186
      1172         -0.90643259        0.009186
      1173         -0.90643554        0.009186
      1174         -0.90644063        0.009186
      1175         -0.90644525        0.009186
      1176         -0.90645065        0.009186
      1177         -0.90645378        0.009186
      1178         -0.90645763        0.009186
      1179         -0.90645952        0.009186
      1180         -0.90646036        0.009186
      1181         -0.90646499        0.009186
      1182         -0.90646633        0.009186
      1183         -0.90647288        0.009186
      1184         -0.90647593        0.009186
      1185         -0.90647903        0.009186
      1186         -0.90648799        0.009186
      1187         -0.90648839        0.009186
      1188         -0.90649253        0.009186
      1189         -0.90649289        0.009186
      1190         -0.90649479        0.009186
      1191         -0.90650640        0.009186
      1192         -0.90651380        0.009186
      1193         -0.90652255        0.009186
      1194         -0.90652342        0.009186
      1195         -0.90652674        0.009186
      1196         -0.90652760        0.009186
      1197         -0.90652881        0.009186
      1198         -0.90653666        0.009186
      1199         -0.90653863        0.009186
      1200         -0.90654331        0.009186
      1201         -0.90654674        0.009186
      1202         -0.90655407        0.009186
      1203         -0.90655830        0.009186
      1204         -0.90656120        0.009186
      1205         -0.90656244        0.009186
      1206         -0.90656783        0.009186
      1207         -0.90656812        0.009186
      1208         -0.90657038        0.009186
      1209         -0.90657625        0.009186
      1210         -0.90657656        0.009186
      1211         -0.90657742        0.009186
      1212         -0.90658398        0.009186
      1213         -0.90659452        0.009186
      1214         -0.90659998        0.009186
      1215         -0.90660989        0.009186
      1216         -0.90661111        0.009186
      1217         -0.90662181        0.009186
      1218         -0.90663077        0.009186
      1219         -0.90663305        0.009186
      1220         -0.90663646        0.009186
      1221         -0.90664730        0.009186
      1222         -0.90665541        0.009186
      1223         -0.90665584        0.009186
      1224         -0.90665628        0.009186
      1225         -0.90665816        0.009186
      1226         -0.90666145        0.009186
      1227         -0.90666194        0.009186
      1228         -0.90666506        0.009186
      1229         -0.90667239        0.009186
      1230         -0.90667816        0.009186
      1231         -0.90668529        0.009186
      1232         -0.90668927        0.009186
      1233         -0.90669156        0.009186
      1234         -0.90669354        0.009186
      1235         -0.90669524        0.009186
      1236         -0.90670449        0.009186
      1237         -0.90670726        0.009186
      1238         -0.90670831        0.009186
      1239         -0.90671150        0.009186
      1240         -0.90671555        0.009186
      1241         -0.90672164        0.009186
      1242         -0.90672338        0.009186
      1243         -0.90673068        0.009186
      1244         -0.90673329        0.009186
      1245         -0.90673362        0.009186
      1246         -0.90673524        0.009186
      1247         -0.90674170        0.009186
      1248         -0.90674828        0.009186
      1249         -0.90674946        0.009186
      1250         -0.90675630        0.009186
      1251         -0.90675876        0.009186
      1252         -0.90676075        0.009186
      1253         -0.90676152        0.009186
      1254         -0.90676857        0.009186
      1255         -0.90677122        0.009186
      1256         -0.90678009        0.009186
      1257         -0.90678110        0.009186
      1258         -0.90678552        0.009186
      1259         -0.90678621        0.009186
      1260         -0.90679105        0.009186
      1261         -0.90679525        0.009186
      1262         -0.90679545        0.009186
      1263         -0.90679898        0.009186
      1264         -0.90679916        0.009186
      1265         -0.90680041        0.009186
      1266         -0.90680943        0.009186
      1267         -0.90681139        0.009186
      1268         -0.90681235        0.009186
      1269         -0.90682142        0.009186
      1270         -0.90682661        0.009186
      1271         -0.90683058        0.009186
      1272         -0.90683453        0.009186
      1273         -0.90683478        0.009186
      1274         -0.90684301        0.009186
      1275         -0.90684562        0.009186
      1276         -0.90684762        0.009186
      1277         -0.90685305        0.009186
      1278         -0.90685444        0.009186
      1279         -0.90685934        0.009186
      1280         -0.90686078        0.009186
      1281         -0.90686288        0.009186
      1282         -0.90686614        0.009186
      1283         -0.90687334        0.009186
      1284         -0.90687423        0.009186
      1285         -0.90687582        0.009186
      1286         -0.90687792        0.009186
      1287         -0.90687894        0.008505
      1288         -0.90688143        0.008505
      1289         -0.90688643        0.008505
      1290         -0.90689186        0.008505
      1291         -0.90689751        0.008505
      1292         -0.90689915        0.008505
      1293         -0.90690300        0.008505
      1294         -0.90690428        0.008505
      1295         -0.90690889        0.008505
      1296         -0.90691164        0.008505
      1297         -0.90691410        0.008505
      1298         -0.90691991        0.008505
      1299         -0.90692123        0.008505
      1300         -0.90692576        0.008505
      1301         -0.90693217        0.008505
      1302         -0.90693707        0.008505
      1303         -0.90693973        0.008505
      1304         -0.90694432        0.008505
      1305         -0.90695004        0.008505
      1306         -0.90695109        0.008505
      1307         -0.90695439        0.008505
      1308         -0.90695465        0.008505
      1309         -0.90695834        0.008505
      1310         -0.90695887        0.008505
      1311         -0.90696246        0.008505
      1312         -0.90697040        0.008505
      1313         -0.90697251        0.008505
      1314         -0.90697540        0.008505
      1315         -0.90698191        0.008505
      1316         -0.90698526        0.008505
      1317         -0.90698812        0.008505
      1318         -0.90699035        0.008505
      1319         -0.90699364        0.008505
      1320         -0.90699891        0.008505
      1321         -0.90700511        0.008505
      1322         -0.90700734        0.008505
      1323         -0.90700972        0.008505
      1324         -0.90700977        0.008505
      1325         -0.90701034        0.008505
      1326         -0.90701206        0.008505
      1327         -0.90701426        0.008505
      1328         -0.90702322        0.008505
      1329         -0.90702958        0.008505
      1330         -0.90703393        0.008505
      1331         -0.90703516        0.008505
      1332         -0.90703575        0.008505
      1333         -0.90704184        0.008505
      1334         -0.90704439        0.008505
      1335         -0.90704594        0.008505
      1336         -0.90704744        0.008505
      1337         -0.90705622        0.008505
      1338         -0.90706096        0.008505
      1339         -0.90706207        0.008505
      1340         -0.90706249        0.008505
      1341         -0.90707054        0.008505
      1342         -0.90707160        0.008505
      1343         -0.90707289        0.008505
      1344         -0.90707330        0.008505
      1345         -0.90707562        0.008505
      1346         -0.90707628        0.008505
      1347         -0.90707990        0.008505
      1348         -0.90708863        0.008505
      1349         -0.90709088        0.008505
      1350         -0.90709897        0.008505
      1351         -0.90710124        0.008505
      1352         -0.90710269        0.008505
      1353         -0.90710286        0.008505
      1354         -0.90710339        0.008505
      1355         -0.90710423        0.008505
      1356         -0.90710752        0.008505
      1357         -0.90711455        0.008505
      1358         -0.90711495        0.008505
      1359         -0.90712119        0.008505
      1360         -0.90712243        0.008505
      1361         -0.90712335        0.008505
      1362         -0.90712487        0.008505
      1363         -0.90712985        0.008505
      1364         -0.90713041        0.008505
      1365         -0.90713233        0.008505
      1366         -0.90713751        0.008505
      1367         -0.90714204        0.008505
      1368         -0.90714490        0.008505
      1369         -0.90714957        0.008505
      1370         -0.90715458        0.008505
      1371         -0.90715712        0.008505
      1372         -0.90715788        0.008505
      1373         -0.90716043        0.008505
      1374         -0.90716106        0.008505
      1375         -0.90717111        0.008505
      1376         -0.90717133        0.008505
      1377         -0.90717611        0.008505
      1378         -0.90717919        0.008505
      1379         -0.90718051        0.008505
      1380         -0.90718221        0.008505
      1381         -0.90718406        0.008505
      1382         -0.90718438        0.008505
      1383         -0.90718693        0.008505
      1384         -0.90718693        0.008505
      1385         -0.90718764        0.008505
      1386         -0.90719430        0.008505
      1387         -0.90719502        0.008505
      1388         -0.90719944        0.008505
      1389         -0.90720407        0.008505
      1390         -0.90720695        0.008505
      1391         -0.90721230        0.008505
      1392         -0.90721646        0.008505
      1393         -0.90721858        0.008505
      1394         -0.90722544        0.008505
      1395         -0.90722680        0.008505
      1396         -0.90723043        0.008505
      1397         -0.90723546        0.008505
      1398         -0.90723783        0.008505
      1399         -0.90724062        0.008505
      1400         -0.90724253        0.008505
      1401         -0.90724667        0.008505
      1402         -0.90724818        0.008505
      1403         -0.90724894        0.008505
      1404         -0.90725174        0.008505
      1405         -0.90725569        0.008505
      1406         -0.90725980        0.008505
      1407         -0.90726229        0.008505
      1408         -0.90726268        0.008505
      1409         -0.90726453        0.008505
      1410         -0.90727264        0.008505
      1411         -0.90727632        0.008505
      1412         -0.90728027        0.008505
      1413         -0.90728061        0.008505
      1414         -0.90728425        0.008505
      1415         -0.90728434        0.008505
      1416         -0.90728478        0.008505
      1417         -0.90729641        0.008505
      1418         -0.90730367        0.008505
      1419         -0.90730585        0.008505
      1420         -0.90730736        0.008505
      1421         -0.90730815        0.008505
      1422         -0.90731010        0.008505
      1423         -0.90731920        0.008505
      1424         -0.90732811        0.008505
      1425         -0.90733424        0.008505
      1426         -0.90733499        0.008505
      1427         -0.90733644        0.008505
      1428         -0.90733732        0.008505
      1429         -0.90733802        0.008505
      1430         -0.90734303        0.008505
      1431         -0.90734389        0.008505
      1432         -0.90734441        0.008505
      1433         -0.90735018        0.008505
      1434         -0.90735366        0.008505
      1435         -0.90735962        0.008505
      1436         -0.90736081        0.008505
      1437         -0.90736206        0.008505
      1438         -0.90736243        0.008505
      1439         -0.90736248        0.008505
      1440         -0.90736543        0.008505
      1441         -0.90736607        0.008505
      1442         -0.90736664        0.008505
      1443         -0.90736756        0.008505
      1444         -0.90737158        0.008505
      1445         -0.90737194        0.008505
      1446         -0.90737756        0.008505
      1447         -0.90737874        0.008505
      1448         -0.90737920        0.008505
      1449         -0.90738212        0.008505
      1450         -0.90738393        0.008505
      1451         -0.90738511        0.008505
      1452         -0.90738660        0.008505
      1453         -0.90738661        0.008505
      1454         -0.90739134        0.008505
      1455         -0.90739147        0.008505
      1456         -0.90739356        0.008505
      1457         -0.90739356        0.008505
      1458         -0.90739455        0.008505
      1459         -0.90739519        0.008505
      1460         -0.90739865        0.008505
      1461         -0.90739984        0.008505
      1462         -0.90740191        0.008505
      1463         -0.90740572        0.008505
      1464         -0.90741099        0.008505
      1465         -0.90741573        0.008505
      1466         -0.90742054        0.008505
      1467         -0.90742631        0.008505
      1468         -0.90743349        0.008505
      1469         -0.90743490        0.008505
      1470         -0.90743879        0.008505
      1471         -0.90744338        0.008505
      1472         -0.90744415        0.008505
      1473         -0.90744710        0.008505
      1474         -0.90745542        0.008505
      1475         -0.90745743        0.008505
      1476         -0.90746199        0.008505
      1477         -0.90746368        0.008505
      1478         -0.90746456        0.008505
      1479         -0.90746488        0.008505
      1480         -0.90746647        0.008505
      1481         -0.90746977        0.008505
      1482         -0.90747437        0.008505
      1483         -0.90747834        0.008505
      1484         -0.90747976        0.008505
      1485         -0.90748065        0.008505
      1486         -0.90748222        0.008505
      1487         -0.90748240        0.008505
      1488         -0.90748752        0.008505
      1489         -0.90748988        0.008505
      1490         -0.90749314        0.008505
      1491         -0.90750237        0.008505
      1492         -0.90750565        0.008505
      1493         -0.90750613        0.008505
      1494         -0.90750856        0.008505
      1495         -0.90751836        0.008505
      1496         -0.90753079        0.008505
      1497         -0.90753275        0.008505
      1498         -0.90753347        0.008505
      1499         -0.90754020        0.008505
      1500         -0.90754043        0.008505
      1501         -0.90754210        0.008505
      1502         -0.90754685        0.008505
      1503         -0.90755060        0.008505
      1504         -0.90755398        0.008505
      1505         -0.90755714        0.008505
      1506         -0.90756074        0.008505
      1507         -0.90756163        0.008505
      1508         -0.90756288        0.008505
      1509         -0.90756356        0.008505
      1510         -0.90757482        0.008505
      1511         -0.90757702        0.008505
      1512         -0.90758577        0.008505
      1513         -0.90759088        0.008505
      1514         -0.90759954        0.008505
      1515         -0.90760356        0.008505
      1516         -0.90760785        0.008505
      1517         -0.90761101        0.008505
      1518         -0.90761419        0.008505
      1519         -0.90761647        0.008505
      1520         -0.90761738        0.008505
      1521         -0.90762183        0.008505
      1522         -0.90762598        0.008505
      1523         -0.90762828        0.008505
      1524         -0.90762845        0.008505
      1525         -0.90763239        0.008505
      1526         -0.90763247        0.008505
      1527         -0.90763411        0.008505
      1528         -0.90763912        0.008505
      1529         -0.90764141        0.008505
      1530         -0.90764484        0.008505
      1531         -0.90764745        0.008505
      1532         -0.90765026        0.008505
      1533         -0.90765187        0.008505
      1534         -0.90765516        0.008505
      1535         -0.90765565        0.008505
      1536         -0.90765892        0.008505
      1537         -0.90766059        0.008505
      1538         -0.90766174        0.008505
      1539         -0.90766664        0.008505
      1540         -0.90766779        0.008505
      1541         -0.90766914        0.008505
      1542         -0.90767664        0.008505
      1543         -0.90767800        0.008505
      1544         -0.90767990        0.008505
      1545         -0.90768340        0.008505
      1546         -0.90768820        0.008505
      1547         -0.90769239        0.008505
      1548         -0.90769604        0.008505
      1549         -0.90769951        0.008505
      1550         -0.90770401        0.008505
      1551         -0.90770429        0.008505
[...]
   1      -0.81743,   -0.41329     0.35420,    0.14838     0.07018,    0.02521     0.02316,   -0.04680    -0.00286,   -0.03476    -0.00743,    0.01722
   2      -0.14477,    0.36022    -0.29202,    0.86411     0.03094,    0.01419     0.04963,    0.00037     0.05776,    0.00956     0.04312,   -0.02613
   3       0.02919,    0.04822    -0.01557,   -0.02973     0.13294,    0.82257    -0.05721,   -0.53140    -0.02106,   -0.01983    -0.00664,    0.01957
   4      -0.00367,    0.04591     0.05998,   -0.03412     0.25377,    0.47050     0.34966,    0.76254    -0.00313,    0.01099     0.00882,   -0.01324
   5      -0.02318,    0.01769    -0.02759,   -0.02112     0.02592,    0.00644    -0.01395,   -0.02224    -0.20584,   -0.43492    -0.17694,   -0.37810
   6      -0.02272,    0.01806     0.05510,    0.00559    -0.05519,   -0.02113     0.01185,   -0.00598     0.27019,    0.24215     0.22827,    0.28361
   7      -0.00466,   -0.02933    -0.05535,   -0.03532     0.03940,   -0.06530    -0.03964,    0.01207     0.35053,   -0.22770     0.28280,   -0.25197
   8       0.02698,   -0.00899    -0.05101,    0.00607     0.02624,   -0.03036     0.02719,    0.01660    -0.16361,   -0.41559     0.08777,    0.39956
   9       0.02677,    0.01026     0.04970,    0.01800     0.01829,   -0.00749    -0.01190,    0.01694    -0.34191,   -0.02517     0.46043,   -0.01817
  10      -0.02741,    0.00584    -0.01336,    0.02190     0.02561,    0.02313    -0.02092,   -0.03105     0.11234,    0.35619    -0.16198,   -0.37448

                     7                       8                       9                      10  
       ----------------------- ----------------------- ----------------------- -----------------------
   1      -0.03001,    0.01483    -0.01689,    0.01758     0.00600,    0.01178    -0.00520,    0.04191
   2      -0.04134,   -0.03376     0.00997,    0.01523     0.00304,   -0.01899    -0.00474,    0.06450
   3       0.00647,    0.04699    -0.02109,    0.04884     0.02013,   -0.08297     0.01538,   -0.04324
   4      -0.00029,    0.00154    -0.02360,   -0.00591    -0.01527,   -0.00786     0.02950,   -0.03851
   5      -0.18398,   -0.51078    -0.20795,   -0.46316    -0.09682,   -0.15441     0.02948,   -0.06446
   6      -0.03668,   -0.03215    -0.20472,   -0.26223    -0.41549,   -0.45511    -0.32946,   -0.35622
   7      -0.40805,    0.31415    -0.24507,    0.16363     0.21187,   -0.16236     0.39780,   -0.29590
   8       0.14343,    0.43133    -0.15393,   -0.31148    -0.07456,   -0.24621     0.19323,    0.44301
   9      -0.01176,    0.02051    -0.20411,   -0.06646     0.59257,   -0.00494    -0.51650,   -0.03372
  10       0.19445,    0.43182    -0.21242,   -0.57312     0.05377,    0.29567     0.00727,   -0.04202

                   WFN1 Final beta Correlation Function Analysis
                   ---------------------------------------------


 global array: Cb[1:10,1:10],  handle: -980 

                     1                       2                       3                       4                       5                       6  
       ----------------------- ----------------------- ----------------------- ----------------------- ----------------------- -----------------------
   1      -0.81743,   -0.41329     0.35420,    0.14838     0.07018,    0.02521     0.02316,   -0.04680    -0.00286,   -0.03476    -0.00743,    0.01722
   2      -0.14477,    0.36022    -0.29202,    0.86411     0.03094,    0.01419     0.04963,    0.00037     0.05776,    0.00956     0.04312,   -0.02613
   3       0.02919,    0.04822    -0.01557,   -0.02973     0.13294,    0.82257    -0.05721,   -0.53140    -0.02106,   -0.01983    -0.00664,    0.01957
   4      -0.00367,    0.04591     0.05998,   -0.03412     0.25377,    0.47050     0.34966,    0.76254    -0.00313,    0.01099     0.00882,   -0.01324
   5      -0.02318,    0.01769    -0.02759,   -0.02112     0.02592,    0.00644    -0.01395,   -0.02224    -0.20584,   -0.43492    -0.17694,   -0.37810
   6      -0.02272,    0.01806     0.05510,    0.00559    -0.05519,   -0.02113     0.01185,   -0.00598     0.27019,    0.24215     0.22827,    0.28361
   7      -0.00466,   -0.02933    -0.05535,   -0.03532     0.03940,   -0.06530    -0.03964,    0.01207     0.35053,   -0.22770     0.28280,   -0.25197
   8       0.02698,   -0.00899    -0.05101,    0.00607     0.02624,   -0.03036     0.02719,    0.01660    -0.16361,   -0.41559     0.08777,    0.39956
   9       0.02677,    0.01026     0.04970,    0.01800     0.01829,   -0.00749    -0.01190,    0.01694    -0.34191,   -0.02517     0.46043,   -0.01817
  10      -0.02741,    0.00584    -0.01336,    0.02190     0.02561,    0.02313    -0.02092,   -0.03105     0.11234,    0.35619    -0.16198,   -0.37448

                     7                       8                       9                      10  
       ----------------------- ----------------------- ----------------------- -----------------------
   1      -0.03001,    0.01483    -0.01689,    0.01758     0.00600,    0.01178    -0.00520,    0.04191
   2      -0.04134,   -0.03376     0.00997,    0.01523     0.00304,   -0.01899    -0.00474,    0.06450
   3       0.00647,    0.04699    -0.02109,    0.04884     0.02013,   -0.08297     0.01538,   -0.04324
   4      -0.00029,    0.00154    -0.02360,   -0.00591    -0.01527,   -0.00786     0.02950,   -0.03851
   5      -0.18398,   -0.51078    -0.20795,   -0.46316    -0.09682,   -0.15441     0.02948,   -0.06446
   6      -0.03668,   -0.03215    -0.20472,   -0.26223    -0.41549,   -0.45511    -0.32946,   -0.35622
   7      -0.40805,    0.31415    -0.24507,    0.16363     0.21187,   -0.16236     0.39780,   -0.29590
   8       0.14343,    0.43133    -0.15393,   -0.31148    -0.07456,   -0.24621     0.19323,    0.44301
   9      -0.01176,    0.02051    -0.20411,   -0.06646     0.59257,   -0.00494    -0.51650,   -0.03372
  10       0.19445,    0.43182    -0.21242,   -0.57312     0.05377,    0.29567     0.00727,   -0.04202

                     WFN1 Final Alpha Natural Orbital Analysis
                     -----------------------------------------

 Vector    1  Occ=8.389987D-01  E= 0.000000D+00
              MO Center=  2.1D-07,  1.5D-06,  6.9D-05, r^2= 2.1D+00
   Bfn.  Coefficient  Atom+Function         Bfn.  Coefficient  Atom+Function  
  ----- ------------  ---------------      ----- ------------  ---------------
     2      0.489574  1 H  s                  7      0.489620  2 H  s          
     1      0.222220  1 H  s                  6      0.222221  2 H  s          

 Vector    2  Occ=1.507128D-01  E= 0.000000D+00
              MO Center= -1.3D-05, -2.5D-05, -6.0D-05, r^2= 2.3D+00
   Bfn.  Coefficient  Atom+Function         Bfn.  Coefficient  Atom+Function  
  ----- ------------  ---------------      ----- ------------  ---------------
     2     -0.539462  1 H  s                  7      0.539366  2 H  s          
     1     -0.292819  1 H  s                  6      0.292897  2 H  s          

 Vector    3  Occ=3.177315D-03  E= 0.000000D+00
              MO Center=  5.4D-04, -4.6D-04, -2.3D-03, r^2= 2.2D+00
   Bfn.  Coefficient  Atom+Function         Bfn.  Coefficient  Atom+Function  
  ----- ------------  ---------------      ----- ------------  ---------------
     1      0.895992  1 H  s                  6      0.895937  2 H  s          
     2     -0.674633  1 H  s                  7     -0.674303  2 H  s          
     5     -0.047859  1 H  pz                10      0.040461  2 H  pz         

 Vector    4  Occ=2.120773D-03  E= 0.000000D+00
              MO Center=  5.3D-04, -1.3D-04,  1.2D-03, r^2= 2.9D+00
   Bfn.  Coefficient  Atom+Function         Bfn.  Coefficient  Atom+Function  
  ----- ------------  ---------------      ----- ------------  ---------------
     2      0.951296  1 H  s                  7     -0.951702  2 H  s          
     1     -0.917975  1 H  s                  6      0.918045  2 H  s          
    10     -0.046444  2 H  pz                 5     -0.037078  1 H  pz         

 Vector    5  Occ=8.502423D-04  E= 0.000000D+00
              MO Center= -6.0D-04,  2.5D-04, -2.1D-04, r^2= 1.6D+00
   Bfn.  Coefficient  Atom+Function         Bfn.  Coefficient  Atom+Function  
  ----- ------------  ---------------      ----- ------------  ---------------
     3     -0.671387  1 H  px                 8     -0.636692  2 H  px         
     9      0.305868  2 H  py                 4      0.218235  1 H  py         
     5      0.041208  1 H  pz                10     -0.030020  2 H  pz         

 Vector    6  Occ=8.421532D-04  E= 0.000000D+00
              MO Center=  1.8D-04,  1.4D-04,  2.6D-04, r^2= 1.6D+00
   Bfn.  Coefficient  Atom+Function         Bfn.  Coefficient  Atom+Function  
  ----- ------------  ---------------      ----- ------------  ---------------
     4     -0.666853  1 H  py                 9     -0.644429  2 H  py         
     8     -0.290824  2 H  px                 3     -0.233525  1 H  px         

 Vector    7  Occ=8.820682D-04  E= 0.000000D+00
              MO Center= -3.7D-05, -1.2D-04, -3.2D-04, r^2= 1.6D+00
   Bfn.  Coefficient  Atom+Function         Bfn.  Coefficient  Atom+Function  
  ----- ------------  ---------------      ----- ------------  ---------------
     4      0.671370  1 H  py                 9     -0.636734  2 H  py         
     8     -0.303565  2 H  px                 3      0.220106  1 H  px         
    10     -0.048087  2 H  pz                 5      0.031011  1 H  pz         

 Vector    8  Occ=8.087548D-04  E= 0.000000D+00
              MO Center= -2.9D-04,  1.4D-04,  2.2D-04, r^2= 1.6D+00
   Bfn.  Coefficient  Atom+Function         Bfn.  Coefficient  Atom+Function  
  ----- ------------  ---------------      ----- ------------  ---------------
     3     -0.667205  1 H  px                 8      0.643951  2 H  px         
     9     -0.290545  2 H  py                 4      0.233096  1 H  py         
    10     -0.031060  2 H  pz         

 Vector    9  Occ=8.218609D-04  E= 0.000000D+00
              MO Center= -4.6D-05, -3.2D-05,  1.9D-03, r^2= 1.6D+00
   Bfn.  Coefficient  Atom+Function         Bfn.  Coefficient  Atom+Function  
  ----- ------------  ---------------      ----- ------------  ---------------
     5      0.703467  1 H  pz                10     -0.705312  2 H  pz         
     2     -0.098300  1 H  s                  1      0.091613  1 H  s          
     7     -0.085650  2 H  s                  6      0.079492  2 H  s          
     8      0.048243  2 H  px                 4     -0.042249  1 H  py         
     9      0.030244  2 H  py                 3      0.029429  1 H  px         

 Vector   10  Occ=7.853997D-04  E= 0.000000D+00
              MO Center= -2.6D-04,  2.4D-04, -7.4D-04, r^2= 1.6D+00
   Bfn.  Coefficient  Atom+Function         Bfn.  Coefficient  Atom+Function  
  ----- ------------  ---------------      ----- ------------  ---------------
     5     -0.708553  1 H  pz                10     -0.706134  2 H  pz         
     7      0.141355  2 H  s                  2     -0.134146  1 H  s          
     6     -0.104570  2 H  s                  1      0.095149  1 H  s          
     8     -0.029660  2 H  px         


                     WFN1 Final Beta Natural Orbital Analysis
                     ----------------------------------------

 Vector    1  Occ=8.389987D-01  E= 0.000000D+00
              MO Center=  2.1D-07,  1.5D-06,  6.9D-05, r^2= 2.1D+00
   Bfn.  Coefficient  Atom+Function         Bfn.  Coefficient  Atom+Function  
  ----- ------------  ---------------      ----- ------------  ---------------
     2      0.489574  1 H  s                  7      0.489620  2 H  s          
     1      0.222220  1 H  s                  6      0.222221  2 H  s          

 Vector    2  Occ=1.507128D-01  E= 0.000000D+00
              MO Center= -1.3D-05, -2.5D-05, -6.0D-05, r^2= 2.3D+00
   Bfn.  Coefficient  Atom+Function         Bfn.  Coefficient  Atom+Function  
  ----- ------------  ---------------      ----- ------------  ---------------
     2     -0.539462  1 H  s                  7      0.539366  2 H  s          
     1     -0.292819  1 H  s                  6      0.292897  2 H  s          

 Vector    3  Occ=3.177315D-03  E= 0.000000D+00
              MO Center=  5.4D-04, -4.6D-04, -2.3D-03, r^2= 2.2D+00
   Bfn.  Coefficient  Atom+Function         Bfn.  Coefficient  Atom+Function  
  ----- ------------  ---------------      ----- ------------  ---------------
     1      0.895992  1 H  s                  6      0.895937  2 H  s          
     2     -0.674633  1 H  s                  7     -0.674303  2 H  s          
     5     -0.047859  1 H  pz                10      0.040461  2 H  pz         

 Vector    4  Occ=2.120773D-03  E= 0.000000D+00
              MO Center=  5.3D-04, -1.3D-04,  1.2D-03, r^2= 2.9D+00
   Bfn.  Coefficient  Atom+Function         Bfn.  Coefficient  Atom+Function  
  ----- ------------  ---------------      ----- ------------  ---------------
     2      0.951296  1 H  s                  7     -0.951702  2 H  s          
     1     -0.917975  1 H  s                  6      0.918045  2 H  s          
    10     -0.046444  2 H  pz                 5     -0.037078  1 H  pz         

 Vector    5  Occ=8.502423D-04  E= 0.000000D+00
              MO Center= -6.0D-04,  2.5D-04, -2.1D-04, r^2= 1.6D+00
   Bfn.  Coefficient  Atom+Function         Bfn.  Coefficient  Atom+Function  
  ----- ------------  ---------------      ----- ------------  ---------------
     3     -0.671387  1 H  px                 8     -0.636692  2 H  px         
     9      0.305868  2 H  py                 4      0.218235  1 H  py         
     5      0.041208  1 H  pz                10     -0.030020  2 H  pz         

 Vector    6  Occ=8.421532D-04  E= 0.000000D+00
              MO Center=  1.8D-04,  1.4D-04,  2.6D-04, r^2= 1.6D+00
   Bfn.  Coefficient  Atom+Function         Bfn.  Coefficient  Atom+Function  
  ----- ------------  ---------------      ----- ------------  ---------------
     4     -0.666853  1 H  py                 9     -0.644429  2 H  py         
     8     -0.290824  2 H  px                 3     -0.233525  1 H  px         

 Vector    7  Occ=8.820682D-04  E= 0.000000D+00
              MO Center= -3.7D-05, -1.2D-04, -3.2D-04, r^2= 1.6D+00
   Bfn.  Coefficient  Atom+Function         Bfn.  Coefficient  Atom+Function  
  ----- ------------  ---------------      ----- ------------  ---------------
     4      0.671370  1 H  py                 9     -0.636734  2 H  py         
     8     -0.303565  2 H  px                 3      0.220106  1 H  px         
    10     -0.048087  2 H  pz                 5      0.031011  1 H  pz         

 Vector    8  Occ=8.087548D-04  E= 0.000000D+00
              MO Center= -2.9D-04,  1.4D-04,  2.2D-04, r^2= 1.6D+00
   Bfn.  Coefficient  Atom+Function         Bfn.  Coefficient  Atom+Function  
  ----- ------------  ---------------      ----- ------------  ---------------
     3     -0.667205  1 H  px                 8      0.643951  2 H  px         
     9     -0.290545  2 H  py                 4      0.233096  1 H  py         
    10     -0.031060  2 H  pz         

 Vector    9  Occ=8.218609D-04  E= 0.000000D+00
              MO Center= -4.6D-05, -3.2D-05,  1.9D-03, r^2= 1.6D+00
   Bfn.  Coefficient  Atom+Function         Bfn.  Coefficient  Atom+Function  
  ----- ------------  ---------------      ----- ------------  ---------------
     5      0.703467  1 H  pz                10     -0.705312  2 H  pz         
     2     -0.098300  1 H  s                  1      0.091613  1 H  s          
     7     -0.085650  2 H  s                  6      0.079492  2 H  s          
     8      0.048243  2 H  px                 4     -0.042249  1 H  py         
     9      0.030244  2 H  py                 3      0.029429  1 H  px         

 Vector   10  Occ=7.853997D-04  E= 0.000000D+00
              MO Center= -2.6D-04,  2.4D-04, -7.4D-04, r^2= 1.6D+00
   Bfn.  Coefficient  Atom+Function         Bfn.  Coefficient  Atom+Function  
  ----- ------------  ---------------      ----- ------------  ---------------
     5     -0.708553  1 H  pz                10     -0.706134  2 H  pz         
     7      0.141355  2 H  s                  2     -0.134146  1 H  s          
     6     -0.104570  2 H  s                  1      0.095149  1 H  s          
     8     -0.029660  2 H  px         


 Task  times  cpu:     2950.7s     wall:     3449.9s
 Summary of allocated global arrays
-----------------------------------
  No active global arrays



                         GA Statistics for process    0
                         ------------------------------

       create   destroy   get      put      acc     scatter   gather  read&inc
calls:   44       44     1.08e+09 4.63e+05 6.16e+05    0        0       11     
number of processes/call 1.00e+00 1.00e+00 1.00e+00 0.00e+00 0.00e+00
bytes total:             8.64e+11 4.92e+08 6.15e+08 0.00e+00 0.00e+00 8.80e+01
bytes remote:            0.00e+00 0.00e+00 0.00e+00 0.00e+00 0.00e+00 0.00e+00
Max memory consumed for GA by this process: 268000 bytes
MA_summarize_allocated_blocks: starting scan ...
MA_summarize_allocated_blocks: scan completed: 0 heap blocks, 0 stack blocks
MA usage statistics:

	allocation statistics:
					      heap	     stack
					      ----	     -----
	current number of blocks	         0	         0
	maximum number of blocks	        19	        17
	current total bytes		         0	         0
	maximum total bytes		   3205432	  22508664
	maximum total K-bytes		      3206	     22509
	maximum total M-bytes		         4	        23


                                NWChem Input Module
                                -------------------





                                     CITATION
                                     --------
                Please cite the following reference when publishing
                           results obtained with NWChem:

                 M. Valiev, E.J. Bylaska, N. Govind, K. Kowalski,
              T.P. Straatsma, H.J.J. van Dam, D. Wang, J. Nieplocha,
                        E. Apra, T.L. Windus, W.A. de Jong
                 "NWChem: a comprehensive and scalable open-source
                  solution for large scale molecular simulations"
                      Comput. Phys. Commun. 181, 1477 (2010)
                           doi:10.1016/j.cpc.2010.04.018

                                      AUTHORS
                                      -------
          E. Apra, E. J. Bylaska, W. A. de Jong, N. Govind, K. Kowalski,
       T. P. Straatsma, M. Valiev, H. J. J. van Dam, D. Wang, T. L. Windus,
        J. Hammond, J. Autschbach, K. Bhaskaran-Nair, J. Brabec, K. Lopata,
    S. A. Fischer, S. Krishnamoorthy, M. Jacquelin, W. Ma, M. Klemm, O. Villa,
      Y. Chen, V. Anisimov, F. Aquino, S. Hirata, M. T. Hackler, V. Konjkov,
      T. Risthaus, M. Malagoli, A. Marenich, A. Otero-de-la-Roza, J. Mullin,
        P. Nichols, R. Peverati, J. Pittner, Y. Zhao, P.-D. Fan, A. Fonari,
       M. Williamson, R. J. Harrison, J. R. Rehr, M. Dupuis, D. Silverstein,
    D. M. A. Smith, J. Nieplocha, V. Tipparaju, M. Krishnan, B. E. Van Kuiken,
        A. Vazquez-Mayagoitia, L. Jensen, M. Swart, Q. Wu, T. Van Voorhis,
     A. A. Auer, M. Nooijen, L. D. Crosby, E. Brown, G. Cisneros, G. I. Fann,
   H. Fruchtl, J. Garza, K. Hirao, R. A. Kendall, J. A. Nichols, K. Tsemekhman,
    K. Wolinski, J. Anchell, D. E. Bernholdt, P. Borowski, T. Clark, D. Clerc,
   H. Dachsel, M. J. O. Deegan, K. Dyall, D. Elwood, E. Glendening, M. Gutowski,
   A. C. Hess, J. Jaffe, B. G. Johnson, J. Ju, R. Kobayashi, R. Kutteh, Z. Lin,
   R. Littlefield, X. Long, B. Meng, T. Nakajima, S. Niu, L. Pollack, M. Rosing,
   K. Glaesemann, G. Sandrone, M. Stave, H. Taylor, G. Thomas, J. H. van Lenthe,
                               A. T. Wong, Z. Zhang.

 Total times  cpu:     2950.7s     wall:     3449.9s
