 argument  1 = input-wf.nw



============================== echo of input deck ==============================
echo
start wfn1_dat
geometry units au noautoz
  H 0 0 -2.44434600000000000000
  H 0 0  2.44434600000000000000
  symmetry cs
end
basis
  H library 6-31g**
end
set wfn1:input_vectors "atomic"
set wfn1:solver "monte-carlo"
set wfn1:print_error F
set wfn1:t_initial 0.1
#set wfn1:corr_expr "wfn1_mx"
set wfn1:corr_expr "wfn1c"
set wfn1:t_bath 0.0
set wfn1:maxit  20000
task wfn1 energy
================================================================================


                                         
                                         


              Northwest Computational Chemistry Package (NWChem) 6.8
              ------------------------------------------------------


                    Environmental Molecular Sciences Laboratory
                       Pacific Northwest National Laboratory
                                Richland, WA 99352

                              Copyright (c) 1994-2015
                       Pacific Northwest National Laboratory
                            Battelle Memorial Institute

             NWChem is an open-source computational chemistry package
                        distributed under the terms of the
                      Educational Community License (ECL) 2.0
             A copy of the license is included with this distribution
                              in the LICENSE.TXT file

                                  ACKNOWLEDGMENT
                                  --------------

            This software and its documentation were developed at the
            EMSL at Pacific Northwest National Laboratory, a multiprogram
            national laboratory, operated for the U.S. Department of Energy
            by Battelle under Contract Number DE-AC05-76RL01830. Support
            for this work was provided by the Department of Energy Office
            of Biological and Environmental Research, Office of Basic
            Energy Sciences, and the Office of Advanced Scientific Computing.


           Job information
           ---------------

    hostname        = erato
    program         = ../../../bin/LINUX64/nwchem
    date            = Tue Mar  2 05:53:02 2021

    compiled        = Sun_Feb_28_18:02:42_2021
    source          = /home/hvandam/nwchem-1-wfn1
    nwchem branch   = Development
    nwchem revision = nwchem_on_git-124-gad72d19fff205e319ffbbf2bca37a04ded6ad57b
    ga revision     = nwchem_on_git-124-gad72d19
    use scalapack   = F
    input           = input-wf.nw
    prefix          = wfn1_dat.
    data base       = ./wfn1_dat.db
    status          = startup
    nproc           =        1
    time left       =     -1s



           Memory information
           ------------------

    heap     =   13107196 doubles =    100.0 Mbytes
    stack    =   13107201 doubles =    100.0 Mbytes
    global   =   26214400 doubles =    200.0 Mbytes (distinct from heap & stack)
    total    =   52428797 doubles =    400.0 Mbytes
    verify   = yes
    hardfail = no 


           Directory information
           ---------------------

  0 permanent = .
  0 scratch   = .




                                NWChem Input Module
                                -------------------


 Turning off AUTOSYM since
 SYMMETRY directive was detected!



                             Geometry "geometry" -> ""
                             -------------------------

 Output coordinates in a.u. (scale by  1.000000000 to convert to a.u.)

  No.       Tag          Charge          X              Y              Z
 ---- ---------------- ---------- -------------- -------------- --------------
    1 H                    1.0000     0.00000000     0.00000000    -2.44434600
    2 H                    1.0000     0.00000000     0.00000000     2.44434600

      Atomic Mass 
      ----------- 

      H                  1.007825


 Effective nuclear repulsion energy (a.u.)       0.2045536925

            Nuclear Dipole moment (a.u.) 
            ----------------------------
        X                 Y               Z
 ---------------- ---------------- ----------------
     0.0000000000     0.0000000000     0.0000000000

      Symmetry information
      --------------------

 Group name             Cs        
 Group number              2
 Group order               2
 No. of unique centers     1

      Symmetry unique atoms

     1


            XYZ format geometry
            -------------------
     2
 geometry
 H                     0.00000000     0.00000000    -1.29349229
 H                     0.00000000     0.00000000     1.29349229

                      Basis "ao basis" -> "" (cartesian)
                      -----
  H (Hydrogen)
  ------------
            Exponent  Coefficients 
       -------------- ---------------------------------------------------------
  1 S  1.87311370E+01  0.033495
  1 S  2.82539370E+00  0.234727
  1 S  6.40121700E-01  0.813757

  2 S  1.61277800E-01  1.000000

  3 P  1.10000000E+00  1.000000



 Summary of "ao basis" -> "" (cartesian)
 ------------------------------------------------------------------------------
       Tag                 Description            Shells   Functions and Types
 ---------------- ------------------------------  ------  ---------------------
 H                          6-31g**                  3        5   2s1p



                                NWChem WFN1 Module
                                ------------------



          No. of electrons :     2
           Alpha electrons :     1
            Beta electrons :     1
          Charge           :     0
          Spin multiplicity:     1

 HvD: wfn1_inpdft
 HvD: nquad_task =                     1
 HvD: iangquad   =                     0
 HvD: gridtype   = user      
 HvD: leb        =  T
 HvD: radgrid    = murakn    
 HvD: trunc_neigh=  T
 HvD: lssw       =  T
 HvD: whichssw   = erf1    
 HvD: mxnrad     =                     0
 HvD: mxnang     =                     0
 HVD: wfn1: movecs_in  = atomic                                                                                                                                                                                                                                                          
 HVD: wfn1: movecs_out = ./wfn1_dat.movecs                                                                                                                                                                                                                                               

      Superposition of Atomic Density Guess
      -------------------------------------

 Sum of atomic energies:          -0.99646508

      Non-variational initial energy
      ------------------------------

 Total energy =      -0.683885
 1-e energy   =      -1.405558
 2-e energy   =       0.517119
 HOMO         =      -0.225142
 LUMO         =      -0.154766

 iteration              energy           error
 ---------              ------           -----
         0         -0.84903324        0.200000
         1         -0.85857160        0.200000
         2         -0.86089957        0.200000
         3         -0.86426210        0.200000
         4         -0.86449542        0.200000
         5         -0.86773877        0.200000
         6         -0.87112718        0.200000
         7         -0.87531986        0.200000
         8         -0.87561667        0.200000
         9         -0.87600755        0.200000
        10         -0.87617014        0.200000
        11         -0.87677263        0.200000
        12         -0.87711149        0.200000
        13         -0.87738406        0.200000
        14         -0.87782460        0.200000
        15         -0.87885905        0.200000
        16         -0.88100401        0.200000
        17         -0.88130944        0.200000
        18         -0.88180028        0.200000
        19         -0.88215128        0.200000
        20         -0.88247233        0.185175
        21         -0.88320064        0.171449
        22         -0.88415893        0.171449
        23         -0.88421916        0.158740
        24         -0.88426035        0.158740
        25         -0.88463919        0.158740
        26         -0.88483129        0.085724
        27         -0.88505241        0.079370
        28         -0.88512129        0.073487
        29         -0.88520128        0.073487
        30         -0.88529372        0.073487
        31         -0.88529881        0.062996
        32         -0.88531839        0.062996
        33         -0.88534777        0.062996
        34         -0.88536033        0.062996
        35         -0.88536244        0.062996
        36         -0.88547498        0.058326
        37         -0.88565404        0.058326
        38         -0.88566261        0.058326
        39         -0.88566956        0.058326
        40         -0.88581800        0.054003
        41         -0.88582166        0.054003
        42         -0.88587590        0.054003
        43         -0.88591747        0.054003
        44         -0.88594028        0.054003
        45         -0.88596816        0.054003
        46         -0.88609452        0.054003
        47         -0.88610353        0.054003
        48         -0.88613676        0.054003
        49         -0.88614264        0.054003
        50         -0.88615141        0.054003
        51         -0.88627922        0.054003
        52         -0.88635449        0.054003
        53         -0.88635786        0.050000
        54         -0.88636183        0.050000
        55         -0.88637673        0.050000
        56         -0.88640044        0.050000
        57         -0.88642176        0.039685
        58         -0.88643805        0.039685
        59         -0.88651278        0.039685
        60         -0.88653093        0.039685
        61         -0.88655457        0.039685
        62         -0.88656360        0.039685
        63         -0.88658278        0.039685
        64         -0.88660162        0.036743
        65         -0.88660818        0.036743
        66         -0.88661495        0.036743
        67         -0.88664896        0.036743
        68         -0.88666727        0.036743
        69         -0.88670076        0.036743
        70         -0.88671323        0.036743
        71         -0.88672642        0.036743
        72         -0.88674292        0.036743
        73         -0.88676473        0.036743
        74         -0.88676607        0.036743
        75         -0.88678617        0.036743
        76         -0.88679311        0.036743
        77         -0.88679417        0.036743
        78         -0.88680270        0.036743
        79         -0.88680903        0.029163
        80         -0.88681852        0.029163
        81         -0.88684167        0.029163
        82         -0.88685647        0.029163
        83         -0.88685890        0.029163
        84         -0.88686010        0.029163
        85         -0.88686733        0.029163
        86         -0.88686747        0.029163
        87         -0.88691034        0.029163
        88         -0.88691421        0.027001
        89         -0.88691422        0.027001
        90         -0.88691472        0.025000
        91         -0.88691817        0.025000
        92         -0.88692673        0.025000
        93         -0.88693555        0.025000
        94         -0.88695212        0.025000
        95         -0.88695586        0.023147
        96         -0.88696606        0.021431
        97         -0.88697048        0.021431
        98         -0.88698227        0.021431
        99         -0.88699941        0.021431
       100         -0.88702130        0.021431
       101         -0.88702769        0.021431
       102         -0.88702770        0.021431
       103         -0.88703084        0.021431
       104         -0.88704739        0.021431
       105         -0.88705334        0.021431
       106         -0.88706332        0.021431
       107         -0.88706549        0.021431
       108         -0.88706554        0.021431
       109         -0.88706586        0.021431
       110         -0.88706980        0.019843
       111         -0.88708434        0.019843
       112         -0.88708914        0.019843
       113         -0.88709656        0.019843
       114         -0.88709929        0.019843
       115         -0.88711554        0.019843
       116         -0.88711625        0.018372
       117         -0.88711871        0.018372
       118         -0.88712045        0.018372
       119         -0.88712874        0.018372
       120         -0.88713179        0.018372
       121         -0.88713180        0.018372
       122         -0.88714099        0.018372
       123         -0.88714238        0.018372
       124         -0.88714615        0.018372
       125         -0.88716540        0.018372
       126         -0.88716591        0.018372
       127         -0.88716814        0.018372
       128         -0.88717135        0.017010
       129         -0.88717692        0.015749
       130         -0.88718984        0.015749
       131         -0.88719218        0.014582
       132         -0.88719389        0.014582
       133         -0.88719520        0.014582
       134         -0.88720427        0.014582
       135         -0.88720502        0.014582
       136         -0.88720801        0.014582
       137         -0.88720948        0.014582
       138         -0.88721026        0.014582
       139         -0.88721563        0.014582
       140         -0.88722095        0.014582
       141         -0.88722429        0.014582
       142         -0.88722977        0.014582
       143         -0.88723395        0.014582
       144         -0.88723733        0.014582
       145         -0.88724029        0.014582
       146         -0.88724229        0.014582
       147         -0.88724632        0.014582
       148         -0.88725017        0.014582
       149         -0.88725608        0.014582
       150         -0.88726240        0.014582
       151         -0.88727034        0.014582
       152         -0.88727859        0.014582
       153         -0.88728484        0.014582
       154         -0.88728674        0.014582
       155         -0.88729641        0.013501
       156         -0.88729955        0.013501
       157         -0.88730557        0.013501
       158         -0.88730608        0.013501
       159         -0.88730828        0.013501
       160         -0.88731127        0.013501
       161         -0.88731509        0.013501
       162         -0.88732032        0.013501
       163         -0.88732390        0.013501
       164         -0.88732640        0.013501
       165         -0.88733016        0.013501
       166         -0.88733692        0.013501
       167         -0.88733930        0.013501
       168         -0.88734201        0.013501
       169         -0.88734610        0.013501
       170         -0.88734745        0.013501
       171         -0.88735022        0.013501
       172         -0.88735713        0.013501
       173         -0.88736079        0.013501
       174         -0.88736406        0.013501
       175         -0.88736529        0.012500
       176         -0.88736763        0.012500
       177         -0.88736987        0.012500
       178         -0.88737037        0.012500
       179         -0.88737176        0.012500
       180         -0.88737247        0.012500
       181         -0.88737575        0.011573
       182         -0.88737696        0.011573
       183         -0.88738111        0.011573
       184         -0.88738574        0.011573
       185         -0.88738589        0.011573
       186         -0.88738710        0.011573
       187         -0.88739139        0.011573
       188         -0.88739623        0.011573
       189         -0.88739647        0.011573
       190         -0.88739837        0.011573
       191         -0.88740080        0.011573
       192         -0.88740333        0.011573
       193         -0.88740824        0.011573
       194         -0.88741086        0.011573
       195         -0.88741088        0.011573
       196         -0.88741893        0.011573
       197         -0.88741958        0.010716
       198         -0.88742875        0.010716
       199         -0.88743079        0.010716
       200         -0.88743510        0.010716
       201         -0.88743716        0.010716
       202         -0.88743742        0.010716
       203         -0.88744122        0.010716
       204         -0.88744309        0.010716
       205         -0.88744538        0.010716
       206         -0.88744762        0.010716
       207         -0.88744982        0.010716
       208         -0.88745633        0.010716
       209         -0.88745856        0.010716
       210         -0.88745862        0.010716
       211         -0.88745872        0.010716
       212         -0.88746048        0.010716
       213         -0.88746121        0.010716
       214         -0.88747112        0.010716
       215         -0.88747383        0.010716
       216         -0.88747445        0.010716
       217         -0.88747539        0.010716
       218         -0.88747811        0.010716
       219         -0.88747863        0.010716
       220         -0.88747890        0.010716
       221         -0.88748349        0.010716
       222         -0.88748352        0.010716
       223         -0.88748946        0.010716
       224         -0.88749053        0.009186
       225         -0.88749402        0.009186
       226         -0.88749835        0.009186
       227         -0.88749849        0.009186
       228         -0.88750271        0.009186
       229         -0.88750350        0.009186
       230         -0.88750655        0.009186
       231         -0.88751108        0.009186
       232         -0.88751146        0.009186
       233         -0.88751228        0.009186
       234         -0.88751421        0.009186
       235         -0.88751720        0.009186
       236         -0.88752166        0.009186
       237         -0.88752190        0.008505
       238         -0.88752292        0.008505
       239         -0.88752772        0.008505
       240         -0.88753052        0.008505
       241         -0.88753090        0.008505
       242         -0.88753396        0.008505
       243         -0.88753483        0.008505
       244         -0.88753534        0.008505
       245         -0.88753686        0.008505
       246         -0.88753793        0.007875
       247         -0.88753902        0.007875
       248         -0.88753920        0.007875
       249         -0.88754179        0.007875
       250         -0.88754223        0.007875
       251         -0.88754370        0.007291
       252         -0.88754607        0.007291
       253         -0.88754792        0.007291
       254         -0.88755062        0.007291
       255         -0.88755101        0.007291
       256         -0.88755211        0.007291
       257         -0.88755215        0.007291
       258         -0.88755279        0.007291
       259         -0.88755469        0.007291
       260         -0.88755519        0.007291
       261         -0.88755672        0.007291
       262         -0.88755957        0.007291
       263         -0.88755987        0.007291
       264         -0.88756051        0.007291
       265         -0.88756069        0.007291
       266         -0.88756110        0.007291
       267         -0.88756279        0.007291
       268         -0.88756340        0.007291
       269         -0.88756397        0.007291
       270         -0.88756427        0.007291
       271         -0.88756663        0.007291
       272         -0.88756714        0.007291
       273         -0.88757004        0.007291
       274         -0.88757252        0.007291
       275         -0.88757282        0.007291
       276         -0.88757322        0.007291
       277         -0.88757330        0.007291
       278         -0.88757639        0.007291
       279         -0.88758215        0.007291
       280         -0.88758439        0.007291
       281         -0.88758796        0.007291
       282         -0.88758853        0.006750
       283         -0.88758901        0.006750
       284         -0.88759039        0.006750
       285         -0.88759293        0.006750
       286         -0.88759307        0.006750
       287         -0.88759331        0.006750
       288         -0.88759581        0.006750
       289         -0.88759681        0.006750
       290         -0.88759750        0.006750
       291         -0.88759880        0.006750
       292         -0.88759978        0.006750
       293         -0.88760145        0.006750
       294         -0.88760197        0.006750
       295         -0.88760204        0.006750
       296         -0.88760391        0.006750
       297         -0.88760471        0.006750
       298         -0.88760672        0.006750
       299         -0.88760704        0.006750
       300         -0.88760851        0.006750
       301         -0.88761083        0.006750
       302         -0.88761121        0.006750
       303         -0.88761319        0.006750
       304         -0.88761482        0.006750
       305         -0.88761499        0.006750
       306         -0.88761737        0.006750
       307         -0.88761755        0.006750
       308         -0.88761778        0.006750
       309         -0.88761797        0.006750
       310         -0.88761799        0.006750
       311         -0.88761806        0.006750
       312         -0.88762027        0.006750
       313         -0.88762050        0.006750
       314         -0.88762115        0.006750
       315         -0.88762226        0.006750
       316         -0.88762243        0.006750
       317         -0.88762370        0.006750
       318         -0.88762435        0.006750
       319         -0.88762447        0.006750
       320         -0.88762523        0.006750
       321         -0.88762759        0.006750
       322         -0.88762933        0.006750
       323         -0.88762956        0.006750
       324         -0.88762977        0.006750
       325         -0.88762981        0.006750
       326         -0.88763022        0.006750
       327         -0.88763070        0.006750
       328         -0.88763273        0.006750
       329         -0.88763363        0.006750
       330         -0.88763423        0.006750
       331         -0.88763533        0.006750
       332         -0.88763665        0.006750
       333         -0.88763814        0.006750
       334         -0.88763947        0.006750
       335         -0.88764015        0.006750
       336         -0.88764217        0.006750
       337         -0.88764248        0.006750
       338         -0.88764287        0.006750
       339         -0.88764653        0.006750
       340         -0.88764686        0.006750
       341         -0.88764825        0.006750
       342         -0.88764947        0.006750
       343         -0.88765178        0.006750
       344         -0.88765190        0.006750
       345         -0.88765216        0.006750
       346         -0.88765218        0.006750
       347         -0.88765348        0.006750
       348         -0.88765446        0.006750
       349         -0.88765539        0.006750
       350         -0.88765603        0.006750
       351         -0.88765614        0.006750
       352         -0.88765663        0.006750
       353         -0.88765777        0.006750
       354         -0.88765928        0.006750
       355         -0.88766028        0.006750
       356         -0.88766182        0.006750
       357         -0.88766267        0.006250
       358         -0.88766354        0.006250
       359         -0.88766396        0.006250
       360         -0.88766519        0.006250
       361         -0.88766628        0.006250
       362         -0.88766674        0.006250
       363         -0.88766873        0.006250
       364         -0.88766908        0.006250
       365         -0.88767137        0.006250
       366         -0.88767169        0.006250
       367         -0.88767196        0.006250
       368         -0.88767310        0.006250
       369         -0.88767383        0.006250
       370         -0.88767421        0.006250
       371         -0.88767472        0.006250
       372         -0.88767522        0.006250
       373         -0.88767572        0.006250
       374         -0.88767703        0.006250
       375         -0.88767921        0.006250
       376         -0.88767935        0.006250
       377         -0.88768030        0.006250
       378         -0.88768115        0.006250
       379         -0.88768404        0.006250
       380         -0.88768479        0.006250
       381         -0.88768511        0.006250
       382         -0.88768558        0.006250
       383         -0.88768650        0.006250
       384         -0.88768700        0.006250
       385         -0.88768767        0.006250
       386         -0.88769039        0.006250
       387         -0.88769048        0.006250
       388         -0.88769053        0.006250
       389         -0.88769218        0.006250
       390         -0.88769240        0.006250
       391         -0.88769349        0.006250
       392         -0.88769423        0.006250
       393         -0.88769566        0.006250
       394         -0.88769623        0.006250
       395         -0.88769782        0.006250
       396         -0.88769810        0.006250
       397         -0.88769970        0.006250
       398         -0.88770106        0.006250
       399         -0.88770152        0.006250
       400         -0.88770340        0.006250
       401         -0.88770344        0.006250
       402         -0.88770374        0.006250
       403         -0.88770411        0.006250
       404         -0.88770430        0.006250
       405         -0.88770446        0.006250
       406         -0.88770462        0.006250
       407         -0.88770529        0.006250
       408         -0.88770567        0.006250
       409         -0.88770621        0.006250
       410         -0.88770672        0.006250
       411         -0.88770722        0.006250
       412         -0.88770849        0.006250
       413         -0.88770878        0.006250
       414         -0.88771054        0.006250
       415         -0.88771221        0.006250
       416         -0.88771299        0.006250
       417         -0.88771393        0.006250
       418         -0.88771431        0.006250
       419         -0.88771514        0.006250
       420         -0.88771517        0.006250
       421         -0.88771640        0.006250
       422         -0.88771783        0.006250
       423         -0.88771946        0.006250
       424         -0.88772027        0.006250
       425         -0.88772110        0.006250
       426         -0.88772133        0.006250
       427         -0.88772137        0.006250
       428         -0.88772324        0.006250
       429         -0.88772570        0.006250
       430         -0.88772700        0.006250
       431         -0.88772702        0.006250
       432         -0.88772808        0.006250
       433         -0.88772961        0.006250
       434         -0.88772990        0.006250
       435         -0.88773245        0.006250
       436         -0.88773264        0.006250
       437         -0.88773266        0.006250
       438         -0.88773287        0.005787
       439         -0.88773416        0.005787
       440         -0.88773575        0.005787
       441         -0.88773578        0.005787
       442         -0.88773712        0.005787
       443         -0.88773823        0.005787
       444         -0.88773941        0.005787
       445         -0.88774034        0.005787
       446         -0.88774130        0.005787
       447         -0.88774144        0.005787
       448         -0.88774173        0.005787
       449         -0.88774399        0.005787
       450         -0.88774585        0.005787
       451         -0.88774651        0.005787
       452         -0.88774663        0.005787
       453         -0.88774719        0.005787
       454         -0.88774990        0.005787
       455         -0.88775029        0.005787
       456         -0.88775032        0.005787
       457         -0.88775094        0.005787
       458         -0.88775139        0.005787
       459         -0.88775301        0.005787
       460         -0.88775313        0.005787
       461         -0.88775407        0.005787
       462         -0.88775456        0.005787
       463         -0.88775470        0.005787
       464         -0.88775510        0.005787
       465         -0.88775697        0.005787
       466         -0.88776032        0.005787
       467         -0.88776070        0.005787
       468         -0.88776189        0.005787
       469         -0.88776198        0.005787
       470         -0.88776300        0.005787
       471         -0.88776309        0.005358
       472         -0.88776434        0.005358
       473         -0.88776521        0.005358
       474         -0.88776548        0.005358
       475         -0.88776671        0.005358
       476         -0.88776769        0.005358
       477         -0.88776839        0.005358
       478         -0.88776933        0.005358
       479         -0.88776937        0.005358
       480         -0.88776975        0.005358
       481         -0.88777034        0.005358
       482         -0.88777063        0.005358
       483         -0.88777121        0.005358
       484         -0.88777203        0.005358
       485         -0.88777421        0.005358
       486         -0.88777436        0.005358
       487         -0.88777496        0.005358
       488         -0.88777498        0.005358
       489         -0.88777574        0.005358
       490         -0.88777635        0.005358
       491         -0.88777728        0.005358
       492         -0.88777859        0.005358
       493         -0.88777898        0.005358
       494         -0.88777956        0.005358
       495         -0.88778007        0.005358
       496         -0.88778072        0.005358
       497         -0.88778080        0.005358
       498         -0.88778109        0.005358
       499         -0.88778156        0.005358
       500         -0.88778190        0.005358
       501         -0.88778249        0.005358
       502         -0.88778437        0.005358
       503         -0.88778522        0.005358
       504         -0.88778767        0.005358
       505         -0.88778786        0.004961
       506         -0.88778826        0.004961
       507         -0.88778916        0.004961
       508         -0.88778929        0.004961
       509         -0.88778965        0.004961
       510         -0.88779050        0.004961
       511         -0.88779080        0.004961
       512         -0.88779091        0.004961
       513         -0.88779200        0.004961
       514         -0.88779250        0.004961
       515         -0.88779267        0.004961
       516         -0.88779288        0.004961
       517         -0.88779367        0.004961
       518         -0.88779479        0.004961
       519         -0.88779550        0.004961
       520         -0.88779603        0.004961
       521         -0.88779617        0.004961
       522         -0.88779626        0.004961
       523         -0.88779648        0.004961
       524         -0.88779793        0.004961
       525         -0.88779817        0.004961
       526         -0.88779901        0.004961
       527         -0.88779985        0.004961
       528         -0.88780027        0.004961
       529         -0.88780278        0.004961
       530         -0.88780445        0.004961
       531         -0.88780520        0.004961
       532         -0.88780580        0.004961
       533         -0.88780593        0.004961
       534         -0.88780655        0.004961
       535         -0.88780659        0.004961
       536         -0.88780698        0.004961
       537         -0.88780724        0.004961
       538         -0.88780774        0.004961
       539         -0.88780827        0.004961
       540         -0.88780895        0.004961
       541         -0.88780947        0.004961
       542         -0.88780950        0.004961
       543         -0.88781058        0.004961
       544         -0.88781085        0.004961
       545         -0.88781166        0.004961
       546         -0.88781256        0.004961
       547         -0.88781309        0.004961
       548         -0.88781344        0.004961
       549         -0.88781360        0.004961
       550         -0.88781425        0.004961
       551         -0.88781490        0.004961
       552         -0.88781545        0.004961
       553         -0.88781574        0.004961
       554         -0.88781612        0.004961
       555         -0.88781715        0.004593
       556         -0.88781780        0.004593
       557         -0.88781802        0.004593
       558         -0.88781814        0.004593
       559         -0.88782007        0.004593
       560         -0.88782116        0.004593
       561         -0.88782127        0.004593
       562         -0.88782218        0.004593
       563         -0.88782243        0.004593
       564         -0.88782281        0.004593
       565         -0.88782320        0.004593
       566         -0.88782384        0.004593
       567         -0.88782438        0.004593
       568         -0.88782456        0.004252
       569         -0.88782465        0.003937
       570         -0.88782474        0.003937
       571         -0.88782570        0.003937
       572         -0.88782625        0.003937
       573         -0.88782668        0.003937
       574         -0.88782729        0.003937
       575         -0.88782771        0.003937
       576         -0.88782783        0.003937
       577         -0.88782812        0.003937
       578         -0.88782826        0.003937
       579         -0.88782868        0.003937
       580         -0.88782944        0.003937
       581         -0.88782969        0.003937
       582         -0.88782973        0.003937
       583         -0.88783005        0.003937
       584         -0.88783041        0.003937
       585         -0.88783074        0.003937
       586         -0.88783105        0.003937
       587         -0.88783153        0.003937
       588         -0.88783183        0.003937
       589         -0.88783235        0.003937
       590         -0.88783248        0.003937
       591         -0.88783328        0.003937
       592         -0.88783378        0.003937
       593         -0.88783382        0.003937
       594         -0.88783417        0.003937
       595         -0.88783561        0.003937
       596         -0.88783625        0.003937
       597         -0.88783684        0.003937
       598         -0.88783736        0.003937
       599         -0.88783781        0.003937
       600         -0.88783794        0.003937
       601         -0.88783835        0.003937
       602         -0.88783842        0.003937
       603         -0.88783943        0.003937
       604         -0.88783965        0.003937
       605         -0.88783975        0.003937
       606         -0.88783977        0.003937
       607         -0.88784022        0.003937
       608         -0.88784079        0.003937
       609         -0.88784137        0.003937
       610         -0.88784144        0.003937
       611         -0.88784227        0.003937
       612         -0.88784236        0.003937
       613         -0.88784263        0.003937
       614         -0.88784275        0.003937
       615         -0.88784276        0.003937
       616         -0.88784290        0.003937
       617         -0.88784291        0.003937
       618         -0.88784309        0.003937
       619         -0.88784348        0.003937
       620         -0.88784360        0.003937
       621         -0.88784414        0.003937
       622         -0.88784458        0.003937
       623         -0.88784511        0.003937
       624         -0.88784527        0.003937
       625         -0.88784581        0.003937
       626         -0.88784625        0.003937
       627         -0.88784704        0.003937
       628         -0.88784763        0.003937
       629         -0.88784869        0.003937
       630         -0.88784886        0.003937
       631         -0.88784900        0.003937
       632         -0.88784960        0.003937
       633         -0.88784985        0.003937
       634         -0.88785040        0.003937
       635         -0.88785050        0.003937
       636         -0.88785079        0.003937
       637         -0.88785136        0.003937
       638         -0.88785165        0.003937
       639         -0.88785244        0.003937
       640         -0.88785258        0.003937
       641         -0.88785295        0.003937
       642         -0.88785367        0.003937
       643         -0.88785389        0.003937
       644         -0.88785414        0.003937
       645         -0.88785463        0.003937
       646         -0.88785529        0.003937
       647         -0.88785542        0.003937
       648         -0.88785579        0.003937
       649         -0.88785585        0.003937
       650         -0.88785588        0.003937
       651         -0.88785613        0.003937
       652         -0.88785619        0.003937
       653         -0.88785627        0.003937
       654         -0.88785645        0.003937
       655         -0.88785683        0.003937
       656         -0.88785815        0.003937
       657         -0.88785870        0.003937
       658         -0.88785902        0.003937
       659         -0.88785988        0.003937
       660         -0.88786082        0.003937
       661         -0.88786119        0.003937
       662         -0.88786141        0.003937
       663         -0.88786170        0.003937
       664         -0.88786173        0.003937
       665         -0.88786312        0.003937
       666         -0.88786323        0.003937
       667         -0.88786357        0.003937
       668         -0.88786430        0.003937
       669         -0.88786434        0.003937
       670         -0.88786464        0.003645
       671         -0.88786494        0.003645
       672         -0.88786495        0.003375
       673         -0.88786552        0.003375
       674         -0.88786578        0.003375
       675         -0.88786594        0.003375
       676         -0.88786600        0.003375
       677         -0.88786689        0.003375
       678         -0.88786701        0.003375
       679         -0.88786715        0.003125
       680         -0.88786729        0.003125
       681         -0.88786732        0.003125
       682         -0.88786812        0.003125
       683         -0.88786832        0.003125
       684         -0.88786864        0.003125
       685         -0.88786887        0.003125
       686         -0.88786903        0.003125
       687         -0.88786918        0.003125
       688         -0.88786940        0.003125
       689         -0.88787002        0.003125
       690         -0.88787010        0.003125
       691         -0.88787038        0.003125
       692         -0.88787051        0.003125
       693         -0.88787124        0.003125
       694         -0.88787126        0.003125
       695         -0.88787133        0.003125
       696         -0.88787144        0.003125
       697         -0.88787155        0.003125
       698         -0.88787228        0.003125
       699         -0.88787257        0.003125
       700         -0.88787260        0.003125
       701         -0.88787268        0.003125
       702         -0.88787350        0.003125
       703         -0.88787424        0.003125
       704         -0.88787463        0.003125
       705         -0.88787481        0.003125
       706         -0.88787523        0.003125
       707         -0.88787547        0.003125
       708         -0.88787554        0.003125
       709         -0.88787575        0.003125
       710         -0.88787590        0.003125
       711         -0.88787613        0.003125
       712         -0.88787658        0.003125
       713         -0.88787676        0.003125
       714         -0.88787682        0.003125
       715         -0.88787684        0.003125
       716         -0.88787685        0.003125
       717         -0.88787693        0.003125
       718         -0.88787759        0.003125
       719         -0.88787850        0.003125
       720         -0.88787871        0.003125
       721         -0.88787880        0.003125
       722         -0.88787881        0.003125
       723         -0.88787944        0.003125
       724         -0.88788001        0.003125
       725         -0.88788059        0.003125
       726         -0.88788175        0.003125
       727         -0.88788229        0.003125
       728         -0.88788240        0.003125
       729         -0.88788253        0.003125
       730         -0.88788341        0.003125
       731         -0.88788347        0.003125
       732         -0.88788355        0.003125
       733         -0.88788406        0.003125
       734         -0.88788413        0.003125
       735         -0.88788416        0.003125
       736         -0.88788455        0.003125
       737         -0.88788489        0.003125
       738         -0.88788493        0.003125
       739         -0.88788575        0.003125
       740         -0.88788593        0.003125
       741         -0.88788618        0.003125
       742         -0.88788666        0.003125
       743         -0.88788696        0.003125
       744         -0.88788739        0.003125
       745         -0.88788752        0.003125
       746         -0.88788772        0.003125
       747         -0.88788777        0.003125
       748         -0.88788830        0.003125
       749         -0.88788844        0.003125
       750         -0.88788844        0.003125
       751         -0.88788925        0.003125
       752         -0.88788941        0.003125
       753         -0.88788951        0.003125
       754         -0.88789009        0.003125
       755         -0.88789029        0.003125
       756         -0.88789042        0.003125
       757         -0.88789048        0.003125
       758         -0.88789162        0.003125
       759         -0.88789167        0.003125
       760         -0.88789172        0.003125
       761         -0.88789213        0.003125
       762         -0.88789280        0.003125
       763         -0.88789361        0.003125
       764         -0.88789383        0.003125
       765         -0.88789460        0.003125
       766         -0.88789461        0.003125
       767         -0.88789493        0.003125
       768         -0.88789501        0.003125
       769         -0.88789531        0.003125
       770         -0.88789544        0.003125
       771         -0.88789579        0.003125
       772         -0.88789589        0.003125
       773         -0.88789639        0.003125
       774         -0.88789662        0.003125
       775         -0.88789666        0.003125
       776         -0.88789715        0.003125
       777         -0.88789779        0.003125
       778         -0.88789850        0.003125
       779         -0.88789857        0.003125
       780         -0.88789884        0.003125
       781         -0.88789896        0.003125
       782         -0.88789906        0.003125
       783         -0.88789941        0.003125
       784         -0.88789953        0.003125
       785         -0.88790011        0.003125
       786         -0.88790030        0.003125
       787         -0.88790038        0.003125
       788         -0.88790044        0.003125
       789         -0.88790058        0.003125
       790         -0.88790083        0.002893
       791         -0.88790156        0.002893
       792         -0.88790193        0.002679
       793         -0.88790231        0.002480
       794         -0.88790276        0.002480
       795         -0.88790296        0.002480
       796         -0.88790305        0.002480
       797         -0.88790313        0.002480
       798         -0.88790337        0.002480
       799         -0.88790352        0.002480
       800         -0.88790383        0.002480
       801         -0.88790406        0.002480
       802         -0.88790425        0.002480
       803         -0.88790451        0.002480
       804         -0.88790469        0.002480
       805         -0.88790497        0.002480
       806         -0.88790551        0.002480
       807         -0.88790555        0.002480
       808         -0.88790558        0.002480
       809         -0.88790610        0.002480
       810         -0.88790656        0.002480
       811         -0.88790661        0.002480
       812         -0.88790697        0.002480
       813         -0.88790712        0.002480
       814         -0.88790723        0.002480
       815         -0.88790730        0.002480
       816         -0.88790757        0.002480
       817         -0.88790775        0.002480
       818         -0.88790811        0.002480
       819         -0.88790821        0.002480
       820         -0.88790841        0.002480
       821         -0.88790842        0.002480
       822         -0.88790844        0.002480
       823         -0.88790850        0.002296
       824         -0.88790854        0.002296
       825         -0.88790895        0.002296
       826         -0.88790896        0.002296
       827         -0.88790929        0.002296
       828         -0.88790952        0.002296
       829         -0.88790958        0.002296
       830         -0.88790986        0.002296
       831         -0.88790990        0.002296
       832         -0.88791022        0.002296
       833         -0.88791060        0.002296
       834         -0.88791068        0.002296
       835         -0.88791116        0.002296
       836         -0.88791121        0.002296
       837         -0.88791132        0.002296
       838         -0.88791149        0.002296
       839         -0.88791154        0.002296
       840         -0.88791168        0.002296
       841         -0.88791170        0.002296
       842         -0.88791190        0.002296
       843         -0.88791245        0.002296
       844         -0.88791272        0.002296
       845         -0.88791283        0.002296
       846         -0.88791296        0.002296
       847         -0.88791315        0.002296
       848         -0.88791331        0.002296
       849         -0.88791391        0.002296
       850         -0.88791450        0.002296
       851         -0.88791493        0.002296
       852         -0.88791504        0.002296
       853         -0.88791521        0.002296
       854         -0.88791557        0.002296
       855         -0.88791597        0.002296
       856         -0.88791598        0.002296
       857         -0.88791622        0.002296
       858         -0.88791630        0.002296
       859         -0.88791665        0.002296
       860         -0.88791685        0.002296
       861         -0.88791693        0.002296
       862         -0.88791700        0.002296
       863         -0.88791716        0.002296
       864         -0.88791718        0.002296
       865         -0.88791725        0.002296
       866         -0.88791748        0.002296
       867         -0.88791759        0.002296
       868         -0.88791768        0.002296
       869         -0.88791773        0.002296
       870         -0.88791797        0.002296
       871         -0.88791839        0.002296
       872         -0.88791866        0.002296
       873         -0.88791871        0.002296
       874         -0.88791876        0.002296
       875         -0.88791894        0.002296
       876         -0.88791917        0.002296
       877         -0.88791919        0.002296
       878         -0.88791928        0.002296
       879         -0.88791936        0.002296
       880         -0.88791964        0.002296
       881         -0.88791968        0.002296
       882         -0.88791980        0.002296
       883         -0.88792007        0.002296
       884         -0.88792009        0.002296
       885         -0.88792032        0.002296
       886         -0.88792039        0.002296
       887         -0.88792054        0.002296
       888         -0.88792074        0.002296
       889         -0.88792085        0.002296
       890         -0.88792117        0.002296
       891         -0.88792132        0.002296
       892         -0.88792156        0.002296
       893         -0.88792192        0.002296
       894         -0.88792212        0.002296
       895         -0.88792213        0.002296
       896         -0.88792249        0.002296
       897         -0.88792263        0.002296
       898         -0.88792299        0.002296
       899         -0.88792313        0.002296
       900         -0.88792322        0.002296
       901         -0.88792347        0.002296
       902         -0.88792358        0.002296
       903         -0.88792429        0.002296
       904         -0.88792436        0.002296
       905         -0.88792481        0.002296
       906         -0.88792541        0.002296
       907         -0.88792586        0.002296
       908         -0.88792587        0.002296
       909         -0.88792630        0.002296
       910         -0.88792672        0.002296
       911         -0.88792683        0.002296
       912         -0.88792715        0.002296
       913         -0.88792717        0.002296
       914         -0.88792732        0.002296
       915         -0.88792767        0.002296
       916         -0.88792773        0.002296
       917         -0.88792775        0.002296
       918         -0.88792807        0.002296
       919         -0.88792809        0.002296
       920         -0.88792810        0.002296
       921         -0.88792815        0.002296
       922         -0.88792856        0.002296
       923         -0.88792857        0.002296
       924         -0.88792900        0.002296
       925         -0.88792962        0.002296
       926         -0.88792965        0.002296
       927         -0.88792994        0.002296
       928         -0.88793013        0.002296
       929         -0.88793016        0.002296
       930         -0.88793043        0.002126
       931         -0.88793048        0.002126
       932         -0.88793057        0.002126
       933         -0.88793066        0.002126
       934         -0.88793089        0.002126
       935         -0.88793145        0.002126
       936         -0.88793170        0.002126
       937         -0.88793179        0.002126
       938         -0.88793218        0.002126
       939         -0.88793218        0.002126
       940         -0.88793232        0.002126
       941         -0.88793233        0.002126
       942         -0.88793270        0.002126
       943         -0.88793329        0.002126
       944         -0.88793374        0.002126
       945         -0.88793375        0.002126
       946         -0.88793393        0.002126
       947         -0.88793402        0.002126
       948         -0.88793411        0.002126
       949         -0.88793424        0.002126
       950         -0.88793435        0.002126
       951         -0.88793446        0.002126
       952         -0.88793476        0.002126
       953         -0.88793491        0.002126
       954         -0.88793508        0.002126
       955         -0.88793520        0.002126
       956         -0.88793535        0.002126
       957         -0.88793563        0.002126
       958         -0.88793592        0.002126
       959         -0.88793593        0.002126
       960         -0.88793604        0.002126
       961         -0.88793616        0.002126
       962         -0.88793632        0.002126
       963         -0.88793648        0.002126
       964         -0.88793653        0.002126
       965         -0.88793664        0.002126
       966         -0.88793676        0.002126
       967         -0.88793693        0.002126
       968         -0.88793695        0.002126
       969         -0.88793719        0.002126
       970         -0.88793758        0.002126
       971         -0.88793778        0.002126
       972         -0.88793790        0.002126
       973         -0.88793792        0.002126
       974         -0.88793796        0.002126
       975         -0.88793819        0.002126
       976         -0.88793842        0.002126
       977         -0.88793894        0.002126
       978         -0.88793903        0.002126
       979         -0.88793922        0.002126
       980         -0.88793932        0.002126
       981         -0.88793949        0.002126
       982         -0.88793968        0.002126
       983         -0.88793978        0.002126
       984         -0.88793984        0.002126
       985         -0.88794006        0.002126
       986         -0.88794013        0.002126
       987         -0.88794027        0.002126
       988         -0.88794035        0.002126
       989         -0.88794046        0.002126
       990         -0.88794071        0.002126
       991         -0.88794093        0.002126
       992         -0.88794100        0.002126
       993         -0.88794116        0.002126
       994         -0.88794166        0.002126
       995         -0.88794196        0.002126
       996         -0.88794203        0.002126
       997         -0.88794204        0.002126
       998         -0.88794231        0.002126
       999         -0.88794233        0.002126
      1000         -0.88794269        0.002126
      1001         -0.88794273        0.002126
      1002         -0.88794275        0.002126
      1003         -0.88794294        0.002126
      1004         -0.88794304        0.002126
      1005         -0.88794308        0.002126
      1006         -0.88794322        0.002126
      1007         -0.88794351        0.002126
      1008         -0.88794361        0.002126
      1009         -0.88794365        0.002126
      1010         -0.88794375        0.002126
      1011         -0.88794403        0.002126
      1012         -0.88794410        0.001969
      1013         -0.88794417        0.001969
      1014         -0.88794428        0.001969
      1015         -0.88794447        0.001969
      1016         -0.88794475        0.001969
      1017         -0.88794482        0.001969
      1018         -0.88794486        0.001969
      1019         -0.88794505        0.001969
      1020         -0.88794509        0.001969
      1021         -0.88794545        0.001969
      1022         -0.88794558        0.001969
      1023         -0.88794559        0.001969
      1024         -0.88794568        0.001969
      1025         -0.88794579        0.001969
      1026         -0.88794589        0.001969
      1027         -0.88794613        0.001969
      1028         -0.88794620        0.001969
      1029         -0.88794623        0.001969
      1030         -0.88794655        0.001969
      1031         -0.88794671        0.001969
      1032         -0.88794692        0.001969
      1033         -0.88794693        0.001969
      1034         -0.88794701        0.001969
      1035         -0.88794707        0.001969
      1036         -0.88794716        0.001969
      1037         -0.88794741        0.001969
      1038         -0.88794743        0.001969
      1039         -0.88794743        0.001969
      1040         -0.88794749        0.001969
      1041         -0.88794758        0.001969
      1042         -0.88794766        0.001969
      1043         -0.88794776        0.001969
      1044         -0.88794779        0.001969
      1045         -0.88794812        0.001969
      1046         -0.88794817        0.001969
      1047         -0.88794819        0.001969
      1048         -0.88794825        0.001969
      1049         -0.88794826        0.001969
      1050         -0.88794831        0.001969
      1051         -0.88794836        0.001969
      1052         -0.88794837        0.001969
      1053         -0.88794838        0.001969
      1054         -0.88794844        0.001969
      1055         -0.88794867        0.001969
      1056         -0.88794886        0.001969
      1057         -0.88794916        0.001969
      1058         -0.88794920        0.001969
      1059         -0.88794933        0.001969
      1060         -0.88794938        0.001969
      1061         -0.88794940        0.001969
      1062         -0.88794962        0.001969
      1063         -0.88794982        0.001969
      1064         -0.88794984        0.001969
      1065         -0.88794996        0.001969
      1066         -0.88795009        0.001969
      1067         -0.88795026        0.001969
      1068         -0.88795030        0.001969
      1069         -0.88795055        0.001969
      1070         -0.88795064        0.001969
      1071         -0.88795088        0.001969
      1072         -0.88795129        0.001969
      1073         -0.88795139        0.001969
      1074         -0.88795149        0.001969
      1075         -0.88795169        0.001969
      1076         -0.88795174        0.001969
      1077         -0.88795188        0.001969
      1078         -0.88795189        0.001969
      1079         -0.88795201        0.001969
      1080         -0.88795206        0.001969
      1081         -0.88795255        0.001969
      1082         -0.88795255        0.001969
      1083         -0.88795274        0.001969
      1084         -0.88795278        0.001969
      1085         -0.88795301        0.001969
      1086         -0.88795322        0.001969
      1087         -0.88795337        0.001969
      1088         -0.88795341        0.001969
      1089         -0.88795345        0.001969
      1090         -0.88795367        0.001969
      1091         -0.88795371        0.001969
      1092         -0.88795393        0.001969
      1093         -0.88795398        0.001969
      1094         -0.88795401        0.001969
      1095         -0.88795410        0.001969
      1096         -0.88795433        0.001969
      1097         -0.88795457        0.001969
      1098         -0.88795465        0.001969
      1099         -0.88795470        0.001969
      1100         -0.88795478        0.001969
      1101         -0.88795485        0.001969
      1102         -0.88795511        0.001969
      1103         -0.88795517        0.001969
      1104         -0.88795535        0.001969
      1105         -0.88795543        0.001969
      1106         -0.88795549        0.001969
      1107         -0.88795570        0.001969
      1108         -0.88795583        0.001969
      1109         -0.88795615        0.001969
      1110         -0.88795619        0.001969
      1111         -0.88795623        0.001969
      1112         -0.88795647        0.001969
      1113         -0.88795657        0.001969
      1114         -0.88795682        0.001969
      1115         -0.88795712        0.001969
      1116         -0.88795717        0.001969
      1117         -0.88795730        0.001969
      1118         -0.88795742        0.001969
      1119         -0.88795759        0.001969
      1120         -0.88795791        0.001969
      1121         -0.88795825        0.001969
      1122         -0.88795833        0.001969
      1123         -0.88795835        0.001969
      1124         -0.88795839        0.001969
      1125         -0.88795843        0.001969
      1126         -0.88795855        0.001969
      1127         -0.88795870        0.001969
      1128         -0.88795877        0.001969
      1129         -0.88795882        0.001969
      1130         -0.88795888        0.001969
      1131         -0.88795898        0.001969
      1132         -0.88795919        0.001969
      1133         -0.88795928        0.001969
      1134         -0.88795940        0.001969
      1135         -0.88795953        0.001969
      1136         -0.88795959        0.001969
      1137         -0.88795967        0.001969
      1138         -0.88795977        0.001969
      1139         -0.88795993        0.001969
      1140         -0.88796004        0.001969
      1141         -0.88796028        0.001969
      1142         -0.88796047        0.001969
      1143         -0.88796051        0.001969
      1144         -0.88796054        0.001969
      1145         -0.88796073        0.001969
      1146         -0.88796079        0.001969
      1147         -0.88796085        0.001969
      1148         -0.88796101        0.001969
      1149         -0.88796113        0.001969
      1150         -0.88796124        0.001969
      1151         -0.88796137        0.001969
      1152         -0.88796145        0.001969
      1153         -0.88796164        0.001969
      1154         -0.88796175        0.001969
      1155         -0.88796180        0.001969
      1156         -0.88796195        0.001969
      1157         -0.88796216        0.001969
      1158         -0.88796240        0.001969
      1159         -0.88796270        0.001969
      1160         -0.88796272        0.001969
      1161         -0.88796273        0.001969
      1162         -0.88796293        0.001969
      1163         -0.88796322        0.001969
      1164         -0.88796325        0.001969
      1165         -0.88796333        0.001969
      1166         -0.88796337        0.001969
      1167         -0.88796340        0.001969
      1168         -0.88796344        0.001969
      1169         -0.88796344        0.001969
      1170         -0.88796353        0.001969
      1171         -0.88796358        0.001969
      1172         -0.88796367        0.001969
      1173         -0.88796375        0.001969
      1174         -0.88796377        0.001969
      1175         -0.88796377        0.001969
      1176         -0.88796381        0.001969
      1177         -0.88796387        0.001969
      1178         -0.88796405        0.001969
      1179         -0.88796407        0.001969
      1180         -0.88796431        0.001969
      1181         -0.88796435        0.001969
      1182         -0.88796437        0.001969
      1183         -0.88796438        0.001969
      1184         -0.88796456        0.001969
      1185         -0.88796461        0.001969
      1186         -0.88796473        0.001969
      1187         -0.88796484        0.001969
      1188         -0.88796489        0.001969
      1189         -0.88796494        0.001969
      1190         -0.88796527        0.001969
      1191         -0.88796546        0.001969
      1192         -0.88796550        0.001969
      1193         -0.88796552        0.001969
      1194         -0.88796581        0.001969
      1195         -0.88796596        0.001969
      1196         -0.88796606        0.001969
      1197         -0.88796621        0.001969
      1198         -0.88796621        0.001969
      1199         -0.88796622        0.001969
      1200         -0.88796624        0.001969
      1201         -0.88796649        0.001969
      1202         -0.88796669        0.001969
      1203         -0.88796673        0.001969
      1204         -0.88796673        0.001969
      1205         -0.88796704        0.001969
      1206         -0.88796706        0.001969
      1207         -0.88796709        0.001969
      1208         -0.88796714        0.001969
      1209         -0.88796726        0.001969
      1210         -0.88796741        0.001969
      1211         -0.88796753        0.001969
      1212         -0.88796777        0.001969
      1213         -0.88796790        0.001969
      1214         -0.88796809        0.001969
      1215         -0.88796809        0.001969
      1216         -0.88796824        0.001969
      1217         -0.88796825        0.001969
      1218         -0.88796827        0.001969
      1219         -0.88796843        0.001969
      1220         -0.88796844        0.001969
      1221         -0.88796855        0.001969
      1222         -0.88796864        0.001969
      1223         -0.88796871        0.001969
      1224         -0.88796893        0.001969
      1225         -0.88796896        0.001969
      1226         -0.88796916        0.001969
      1227         -0.88796920        0.001969
      1228         -0.88796924        0.001969
      1229         -0.88796927        0.001969
      1230         -0.88796939        0.001969
      1231         -0.88796939        0.001969
      1232         -0.88796951        0.001969
      1233         -0.88796953        0.001969
      1234         -0.88796962        0.001969
      1235         -0.88796962        0.001969
      1236         -0.88796974        0.001969
      1237         -0.88796976        0.001969
      1238         -0.88797004        0.001969
      1239         -0.88797026        0.001969
      1240         -0.88797046        0.001969
      1241         -0.88797051        0.001969
      1242         -0.88797064        0.001969
      1243         -0.88797090        0.001969
      1244         -0.88797091        0.001969
      1245         -0.88797092        0.001969
      1246         -0.88797102        0.001969
      1247         -0.88797118        0.001969
      1248         -0.88797122        0.001969
      1249         -0.88797131        0.001969
      1250         -0.88797134        0.001969
      1251         -0.88797142        0.001969
      1252         -0.88797150        0.001969
      1253         -0.88797150        0.001969
      1254         -0.88797151        0.001823
      1255         -0.88797153        0.001823
      1256         -0.88797161        0.001823
      1257         -0.88797173        0.001823
      1258         -0.88797180        0.001823
      1259         -0.88797196        0.001823
      1260         -0.88797224        0.001823
      1261         -0.88797244        0.001823
      1262         -0.88797251        0.001823
      1263         -0.88797254        0.001823
      1264         -0.88797280        0.001823
      1265         -0.88797281        0.001823
      1266         -0.88797286        0.001823
      1267         -0.88797291        0.001823
      1268         -0.88797309        0.001823
      1269         -0.88797309        0.001823
      1270         -0.88797322        0.001823
      1271         -0.88797336        0.001823
      1272         -0.88797339        0.001823
      1273         -0.88797351        0.001823
      1274         -0.88797355        0.001823
      1275         -0.88797366        0.001823
      1276         -0.88797369        0.001823
      1277         -0.88797384        0.001823
      1278         -0.88797397        0.001823
      1279         -0.88797398        0.001823
      1280         -0.88797405        0.001823
      1281         -0.88797423        0.001823
      1282         -0.88797450        0.001823
      1283         -0.88797461        0.001823
      1284         -0.88797469        0.001823
      1285         -0.88797477        0.001823
      1286         -0.88797479        0.001823
      1287         -0.88797479        0.001823
      1288         -0.88797480        0.001823
      1289         -0.88797482        0.001823
      1290         -0.88797497        0.001823
      1291         -0.88797508        0.001823
      1292         -0.88797519        0.001823
      1293         -0.88797541        0.001823
      1294         -0.88797562        0.001823
      1295         -0.88797581        0.001823
      1296         -0.88797589        0.001823
      1297         -0.88797601        0.001823
      1298         -0.88797608        0.001823
      1299         -0.88797614        0.001823
      1300         -0.88797617        0.001823
      1301         -0.88797619        0.001823
      1302         -0.88797623        0.001688
      1303         -0.88797641        0.001688
      1304         -0.88797653        0.001688
      1305         -0.88797658        0.001688
      1306         -0.88797666        0.001688
      1307         -0.88797674        0.001688
      1308         -0.88797698        0.001688
      1309         -0.88797707        0.001688
      1310         -0.88797708        0.001688
      1311         -0.88797714        0.001688
      1312         -0.88797719        0.001688
      1313         -0.88797727        0.001688
      1314         -0.88797740        0.001688
      1315         -0.88797740        0.001688
      1316         -0.88797757        0.001688
      1317         -0.88797757        0.001688
      1318         -0.88797760        0.001688
      1319         -0.88797761        0.001688
      1320         -0.88797764        0.001688
      1321         -0.88797765        0.001688
      1322         -0.88797768        0.001688
      1323         -0.88797770        0.001688
      1324         -0.88797779        0.001688
      1325         -0.88797791        0.001688
      1326         -0.88797800        0.001688
      1327         -0.88797806        0.001688
      1328         -0.88797814        0.001688
      1329         -0.88797820        0.001688
      1330         -0.88797838        0.001688
      1331         -0.88797840        0.001688
      1332         -0.88797853        0.001688
      1333         -0.88797853        0.001688
      1334         -0.88797855        0.001688
      1335         -0.88797880        0.001688
      1336         -0.88797881        0.001688
      1337         -0.88797894        0.001688
      1338         -0.88797900        0.001688
      1339         -0.88797903        0.001688
      1340         -0.88797908        0.001688
      1341         -0.88797921        0.001688
      1342         -0.88797927        0.001688
      1343         -0.88797941        0.001563
      1344         -0.88797946        0.001563
      1345         -0.88797960        0.001563
      1346         -0.88797962        0.001563
      1347         -0.88797977        0.001563
      1348         -0.88797979        0.001563
      1349         -0.88797989        0.001563
      1350         -0.88797990        0.001563
      1351         -0.88797992        0.001563
      1352         -0.88798023        0.001563
      1353         -0.88798031        0.001563
      1354         -0.88798033        0.001563
      1355         -0.88798038        0.001563
      1356         -0.88798042        0.001563
      1357         -0.88798043        0.001563
      1358         -0.88798047        0.001563
      1359         -0.88798060        0.001563
      1360         -0.88798063        0.001563
      1361         -0.88798076        0.001563
      1362         -0.88798078        0.001563
      1363         -0.88798087        0.001563
      1364         -0.88798089        0.001563
      1365         -0.88798100        0.001563
      1366         -0.88798104        0.001563
      1367         -0.88798109        0.001563
      1368         -0.88798115        0.001563
      1369         -0.88798119        0.001563
      1370         -0.88798128        0.001563
      1371         -0.88798131        0.001563
      1372         -0.88798145        0.001563
      1373         -0.88798163        0.001447
      1374         -0.88798176        0.001447
      1375         -0.88798177        0.001447
      1376         -0.88798187        0.001447
      1377         -0.88798188        0.001447
      1378         -0.88798198        0.001447
      1379         -0.88798205        0.001447
      1380         -0.88798207        0.001447
      1381         -0.88798216        0.001447
      1382         -0.88798222        0.001447
      1383         -0.88798238        0.001447
      1384         -0.88798242        0.001447
      1385         -0.88798244        0.001447
      1386         -0.88798254        0.001447
      1387         -0.88798268        0.001447
      1388         -0.88798277        0.001447
      1389         -0.88798296        0.001447
      1390         -0.88798297        0.001447
      1391         -0.88798311        0.001447
      1392         -0.88798313        0.001447
      1393         -0.88798315        0.001447
      1394         -0.88798320        0.001447
      1395         -0.88798323        0.001447
      1396         -0.88798327        0.001447
      1397         -0.88798338        0.001447
      1398         -0.88798352        0.001447
      1399         -0.88798357        0.001447
      1400         -0.88798363        0.001447
      1401         -0.88798376        0.001447
      1402         -0.88798387        0.001447
      1403         -0.88798405        0.001447
      1404         -0.88798423        0.001447
      1405         -0.88798425        0.001447
      1406         -0.88798428        0.001447
      1407         -0.88798430        0.001447
      1408         -0.88798443        0.001339
      1409         -0.88798449        0.001339
      1410         -0.88798457        0.001339
      1411         -0.88798458        0.001339
      1412         -0.88798465        0.001339
      1413         -0.88798475        0.001339
      1414         -0.88798480        0.001339
      1415         -0.88798481        0.001339
      1416         -0.88798486        0.001339
      1417         -0.88798495        0.001339
      1418         -0.88798509        0.001339
      1419         -0.88798516        0.001339
      1420         -0.88798518        0.001339
      1421         -0.88798522        0.001339
      1422         -0.88798527        0.001339
      1423         -0.88798527        0.001339
      1424         -0.88798537        0.001339
      1425         -0.88798545        0.001339
      1426         -0.88798561        0.001339
      1427         -0.88798564        0.001339
      1428         -0.88798568        0.001339
      1429         -0.88798570        0.001339
      1430         -0.88798580        0.001339
      1431         -0.88798589        0.001339
      1432         -0.88798600        0.001339
      1433         -0.88798604        0.001339
      1434         -0.88798609        0.001339
      1435         -0.88798613        0.001339
      1436         -0.88798614        0.001339
      1437         -0.88798617        0.001339
      1438         -0.88798622        0.001339
      1439         -0.88798632        0.001339
      1440         -0.88798637        0.001339
      1441         -0.88798645        0.001339
      1442         -0.88798646        0.001339
      1443         -0.88798648        0.001339
      1444         -0.88798650        0.001339
      1445         -0.88798658        0.001339
      1446         -0.88798659        0.001339
      1447         -0.88798666        0.001339
      1448         -0.88798669        0.001339
      1449         -0.88798676        0.001339
      1450         -0.88798685        0.001339
      1451         -0.88798694        0.001339
      1452         -0.88798701        0.001339
      1453         -0.88798717        0.001339
      1454         -0.88798721        0.001339
      1455         -0.88798724        0.001339
      1456         -0.88798728        0.001339
      1457         -0.88798732        0.001339
      1458         -0.88798732        0.001339
      1459         -0.88798740        0.001339
      1460         -0.88798756        0.001339
      1461         -0.88798757        0.001339
      1462         -0.88798771        0.001339
      1463         -0.88798778        0.001339
      1464         -0.88798781        0.001240
      1465         -0.88798783        0.001240
      1466         -0.88798785        0.001240
      1467         -0.88798786        0.001240
      1468         -0.88798790        0.001240
      1469         -0.88798807        0.001240
      1470         -0.88798808        0.001240
      1471         -0.88798809        0.001240
      1472         -0.88798823        0.001240
      1473         -0.88798825        0.001240
      1474         -0.88798826        0.001240
      1475         -0.88798827        0.001240
      1476         -0.88798829        0.001240
      1477         -0.88798832        0.001240
      1478         -0.88798841        0.001240
      1479         -0.88798843        0.001240
      1480         -0.88798862        0.001240
      1481         -0.88798868        0.001240
      1482         -0.88798868        0.001240
      1483         -0.88798872        0.001240
      1484         -0.88798884        0.001240
      1485         -0.88798889        0.001240
      1486         -0.88798895        0.001240
      1487         -0.88798900        0.001240
      1488         -0.88798910        0.001240
      1489         -0.88798913        0.001240
      1490         -0.88798921        0.001240
      1491         -0.88798926        0.001240
      1492         -0.88798927        0.001240
      1493         -0.88798933        0.001240
      1494         -0.88798935        0.001240
      1495         -0.88798937        0.001240
      1496         -0.88798953        0.001240
      1497         -0.88798958        0.001240
      1498         -0.88798964        0.001240
      1499         -0.88798969        0.001240
      1500         -0.88798971        0.001240
      1501         -0.88798975        0.001240
      1502         -0.88798977        0.001240
      1503         -0.88798979        0.001240
      1504         -0.88798984        0.001240
      1505         -0.88798989        0.001240
      1506         -0.88799000        0.001240
      1507         -0.88799008        0.001240
      1508         -0.88799008        0.001240
      1509         -0.88799011        0.001240
      1510         -0.88799017        0.001240
      1511         -0.88799017        0.001240
      1512         -0.88799018        0.001240
      1513         -0.88799022        0.001240
      1514         -0.88799023        0.001240
      1515         -0.88799028        0.001240
      1516         -0.88799031        0.001240
      1517         -0.88799038        0.001240
      1518         -0.88799043        0.001240
      1519         -0.88799047        0.001240
      1520         -0.88799056        0.001240
      1521         -0.88799065        0.001240
      1522         -0.88799069        0.001240
      1523         -0.88799077        0.001240
      1524         -0.88799086        0.001240
      1525         -0.88799089        0.001240
      1526         -0.88799100        0.001240
      1527         -0.88799105        0.001240
      1528         -0.88799105        0.001240
      1529         -0.88799110        0.001240
      1530         -0.88799115        0.001240
      1531         -0.88799116        0.001240
      1532         -0.88799119        0.001240
      1533         -0.88799122        0.001240
      1534         -0.88799127        0.001240
      1535         -0.88799129        0.001240
      1536         -0.88799129        0.001240
      1537         -0.88799130        0.001240
      1538         -0.88799145        0.001240
      1539         -0.88799155        0.001240
      1540         -0.88799157        0.001240
      1541         -0.88799158        0.001240
      1542         -0.88799159        0.001240
      1543         -0.88799167        0.001240
      1544         -0.88799167        0.001240
      1545         -0.88799173        0.001240
      1546         -0.88799176        0.001240
      1547         -0.88799177        0.001240
      1548         -0.88799182        0.001240
      1549         -0.88799186        0.001240
      1550         -0.88799189        0.001240
      1551         -0.88799189        0.001240
[...]
   4      -0.00000    -0.00000     0.00000     0.00000
   5      -0.00000     0.00000     0.00000     0.00000
   6       0.00000     0.00000     0.00000     0.00000
   7       0.00000     0.00000     0.00000     0.00000
   8       0.00000     0.00000    -0.00000     0.00000
   9      -0.00000    -0.00000     0.00000     0.00000
  10       0.00000    -0.00000     0.00000     0.00000

                  WFN1 Final alpha Correlation Function Analysis
                  ----------------------------------------------


 global array: Ca[1:10,1:10],  handle: -981 

                     1                       2                       3                       4                       5                       6  
       ----------------------- ----------------------- ----------------------- ----------------------- ----------------------- -----------------------
   1       0.47740,   -0.72371    -0.26266,    0.41125    -0.02958,    0.01878     0.04077,    0.03101    -0.02296,   -0.01503    -0.00751,    0.00149
   2       0.41845,    0.24601     0.75441,    0.42096    -0.06224,   -0.04589    -0.01532,   -0.01005    -0.03742,    0.03029     0.01154,   -0.02045
   3       0.03102,   -0.05457     0.03842,   -0.00471     0.77369,   -0.29234    -0.51644,    0.18153     0.03279,   -0.01302     0.04251,    0.05439
   4       0.02904,   -0.04310    -0.02434,   -0.04484     0.04349,   -0.54604     0.08152,   -0.82342    -0.03898,    0.05756    -0.03006,   -0.02044
   5       0.03201,   -0.00202    -0.01908,    0.03017     0.02816,    0.03653    -0.03235,   -0.03195     0.22815,   -0.31425     0.23894,   -0.31641
   6       0.02416,   -0.02072     0.02848,    0.04789    -0.00156,   -0.03308     0.02823,   -0.05736     0.35606,   -0.04573     0.41966,   -0.10499
   7       0.02953,   -0.01347     0.00083,    0.02973    -0.00148,   -0.02316     0.00556,    0.03881    -0.13193,    0.42849    -0.15074,    0.38320
   8      -0.00687,   -0.03069    -0.03871,   -0.01463    -0.01317,    0.05379    -0.04609,   -0.00425    -0.39418,    0.19166     0.36724,   -0.17169
   9      -0.03028,   -0.00967    -0.01657,    0.00810    -0.00872,    0.01362     0.04502,   -0.02882     0.25411,   -0.33541    -0.22561,    0.29607
  10       0.00503,   -0.03090     0.05485,   -0.03347    -0.03957,   -0.00578    -0.00520,   -0.00164    -0.14457,   -0.34652     0.15998,    0.38845

                     7                       8                       9                      10  
       ----------------------- ----------------------- ----------------------- -----------------------
   1      -0.02525,    0.04575     0.02353,    0.02106     0.03658,    0.01218     0.00354,   -0.01833
   2       0.00125,    0.03397     0.04764,   -0.01200    -0.01279,    0.00572     0.05740,   -0.04235
   3       0.00204,    0.04182     0.02282,    0.02206    -0.01757,    0.01274     0.03874,    0.01026
   4      -0.01078,   -0.02641     0.02925,   -0.00193     0.01519,   -0.01800     0.03551,   -0.01855
   5       0.32351,   -0.42895     0.32300,   -0.46111     0.12677,   -0.24782    -0.04072,    0.02711
   6       0.00087,   -0.00124    -0.29733,    0.11540    -0.54742,    0.14397    -0.48937,    0.11440
   7       0.15486,   -0.42240     0.12831,   -0.25188    -0.10974,    0.29000    -0.16341,    0.46931
   8       0.42827,   -0.22012    -0.23370,    0.15508    -0.23783,    0.10903     0.47610,   -0.17312
   9       0.03519,   -0.00168     0.19221,   -0.20536    -0.42117,    0.43568     0.31116,   -0.36814
  10      -0.22209,   -0.46909     0.23309,    0.53294    -0.07707,   -0.24837    -0.01584,    0.01386

                   WFN1 Final beta Correlation Function Analysis
                   ---------------------------------------------


 global array: Cb[1:10,1:10],  handle: -980 

                     1                       2                       3                       4                       5                       6  
       ----------------------- ----------------------- ----------------------- ----------------------- ----------------------- -----------------------
   1       0.47740,   -0.72371    -0.26266,    0.41125    -0.02958,    0.01878     0.04077,    0.03101    -0.02296,   -0.01503    -0.00751,    0.00149
   2       0.41845,    0.24601     0.75441,    0.42096    -0.06224,   -0.04589    -0.01532,   -0.01005    -0.03742,    0.03029     0.01154,   -0.02045
   3       0.03102,   -0.05457     0.03842,   -0.00471     0.77369,   -0.29234    -0.51644,    0.18153     0.03279,   -0.01302     0.04251,    0.05439
   4       0.02904,   -0.04310    -0.02434,   -0.04484     0.04349,   -0.54604     0.08152,   -0.82342    -0.03898,    0.05756    -0.03006,   -0.02044
   5       0.03201,   -0.00202    -0.01908,    0.03017     0.02816,    0.03653    -0.03235,   -0.03195     0.22815,   -0.31425     0.23894,   -0.31641
   6       0.02416,   -0.02072     0.02848,    0.04789    -0.00156,   -0.03308     0.02823,   -0.05736     0.35606,   -0.04573     0.41966,   -0.10499
   7       0.02953,   -0.01347     0.00083,    0.02973    -0.00148,   -0.02316     0.00556,    0.03881    -0.13193,    0.42849    -0.15074,    0.38320
   8      -0.00687,   -0.03069    -0.03871,   -0.01463    -0.01317,    0.05379    -0.04609,   -0.00425    -0.39418,    0.19166     0.36724,   -0.17169
   9      -0.03028,   -0.00967    -0.01657,    0.00810    -0.00872,    0.01362     0.04502,   -0.02882     0.25411,   -0.33541    -0.22561,    0.29607
  10       0.00503,   -0.03090     0.05485,   -0.03347    -0.03957,   -0.00578    -0.00520,   -0.00164    -0.14457,   -0.34652     0.15998,    0.38845

                     7                       8                       9                      10  
       ----------------------- ----------------------- ----------------------- -----------------------
   1      -0.02525,    0.04575     0.02353,    0.02106     0.03658,    0.01218     0.00354,   -0.01833
   2       0.00125,    0.03397     0.04764,   -0.01200    -0.01279,    0.00572     0.05740,   -0.04235
   3       0.00204,    0.04182     0.02282,    0.02206    -0.01757,    0.01274     0.03874,    0.01026
   4      -0.01078,   -0.02641     0.02925,   -0.00193     0.01519,   -0.01800     0.03551,   -0.01855
   5       0.32351,   -0.42895     0.32300,   -0.46111     0.12677,   -0.24782    -0.04072,    0.02711
   6       0.00087,   -0.00124    -0.29733,    0.11540    -0.54742,    0.14397    -0.48937,    0.11440
   7       0.15486,   -0.42240     0.12831,   -0.25188    -0.10974,    0.29000    -0.16341,    0.46931
   8       0.42827,   -0.22012    -0.23370,    0.15508    -0.23783,    0.10903     0.47610,   -0.17312
   9       0.03519,   -0.00168     0.19221,   -0.20536    -0.42117,    0.43568     0.31116,   -0.36814
  10      -0.22209,   -0.46909     0.23309,    0.53294    -0.07707,   -0.24837    -0.01584,    0.01386

                     WFN1 Final Alpha Natural Orbital Analysis
                     -----------------------------------------

 Vector    1  Occ=7.516588D-01  E= 0.000000D+00
              MO Center= -4.1D-06, -1.3D-05,  8.3D-05, r^2= 2.5D+00
   Bfn.  Coefficient  Atom+Function         Bfn.  Coefficient  Atom+Function  
  ----- ------------  ---------------      ----- ------------  ---------------
     2      0.507431  1 H  s                  7      0.507482  2 H  s          
     1      0.222652  1 H  s                  6      0.222646  2 H  s          

 Vector    2  Occ=2.356243D-01  E= 0.000000D+00
              MO Center=  5.9D-06,  4.7D-05, -7.4D-05, r^2= 2.7D+00
   Bfn.  Coefficient  Atom+Function         Bfn.  Coefficient  Atom+Function  
  ----- ------------  ---------------      ----- ------------  ---------------
     2     -0.528616  1 H  s                  7      0.528501  2 H  s          
     1     -0.277140  1 H  s                  6      0.277238  2 H  s          

 Vector    3  Occ=3.939823D-03  E= 0.000000D+00
              MO Center= -5.2D-04, -5.3D-06, -3.0D-03, r^2= 2.6D+00
   Bfn.  Coefficient  Atom+Function         Bfn.  Coefficient  Atom+Function  
  ----- ------------  ---------------      ----- ------------  ---------------
     1     -0.893409  1 H  s                  6     -0.893664  2 H  s          
     2      0.694558  1 H  s                  7      0.694593  2 H  s          
     5      0.031969  1 H  pz         

 Vector    4  Occ=2.701419D-03  E= 0.000000D+00
              MO Center= -1.5D-03, -5.6D-04,  2.1D-04, r^2= 3.2D+00
   Bfn.  Coefficient  Atom+Function         Bfn.  Coefficient  Atom+Function  
  ----- ------------  ---------------      ----- ------------  ---------------
     1     -0.923966  1 H  s                  6      0.923769  2 H  s          
     2      0.899156  1 H  s                  7     -0.899379  2 H  s          
    10     -0.031407  2 H  pz         

 Vector    5  Occ=1.029018D-03  E= 0.000000D+00
              MO Center=  4.5D-04,  1.0D-05, -9.0D-05, r^2= 2.0D+00
   Bfn.  Coefficient  Atom+Function         Bfn.  Coefficient  Atom+Function  
  ----- ------------  ---------------      ----- ------------  ---------------
     3     -0.705823  1 H  px                 8     -0.706834  2 H  px         
     4     -0.042885  1 H  py         

 Vector    6  Occ=1.013278D-03  E= 0.000000D+00
              MO Center= -2.5D-06, -1.4D-05,  3.6D-04, r^2= 2.0D+00
   Bfn.  Coefficient  Atom+Function         Bfn.  Coefficient  Atom+Function  
  ----- ------------  ---------------      ----- ------------  ---------------
     4     -0.705026  1 H  py                 9     -0.706748  2 H  py         
     5     -0.044911  1 H  pz                 3      0.028002  1 H  px         

 Vector    7  Occ=1.053643D-03  E= 0.000000D+00
              MO Center=  8.9D-06,  5.8D-04, -4.7D-04, r^2= 2.0D+00
   Bfn.  Coefficient  Atom+Function         Bfn.  Coefficient  Atom+Function  
  ----- ------------  ---------------      ----- ------------  ---------------
     4      0.705742  1 H  py                 9     -0.705066  2 H  py         
    10      0.052020  2 H  pz                 3     -0.042939  1 H  px         

 Vector    8  Occ=9.892515D-04  E= 0.000000D+00
              MO Center=  1.7D-03,  4.6D-05,  9.8D-05, r^2= 2.0D+00
   Bfn.  Coefficient  Atom+Function         Bfn.  Coefficient  Atom+Function  
  ----- ------------  ---------------      ----- ------------  ---------------
     3     -0.706073  1 H  px                 8      0.705510  2 H  px         
    10     -0.046261  2 H  pz                 4     -0.026454  1 H  py         
     5     -0.025863  1 H  pz         

 Vector    9  Occ=1.010227D-03  E= 0.000000D+00
              MO Center=  3.4D-05,  8.9D-05,  3.1D-03, r^2= 2.0D+00
   Bfn.  Coefficient  Atom+Function         Bfn.  Coefficient  Atom+Function  
  ----- ------------  ---------------      ----- ------------  ---------------
     5     -0.705565  1 H  pz                10      0.705880  2 H  pz         
     2      0.064700  1 H  s                  1     -0.058541  1 H  s          
     9      0.052334  2 H  py                 7      0.043573  2 H  s          
     6     -0.036812  2 H  s          

 Vector   10  Occ=9.802291D-04  E= 0.000000D+00
              MO Center= -1.2D-04, -1.8D-04, -2.4D-04, r^2= 2.0D+00
   Bfn.  Coefficient  Atom+Function         Bfn.  Coefficient  Atom+Function  
  ----- ------------  ---------------      ----- ------------  ---------------
     5     -0.706473  1 H  pz                10     -0.704143  2 H  pz         
     7      0.076010  2 H  s                  6     -0.063378  2 H  s          
     2     -0.062150  1 H  s                  1      0.045664  1 H  s          
     4      0.045499  1 H  py                 8     -0.045424  2 H  px         


                     WFN1 Final Beta Natural Orbital Analysis
                     ----------------------------------------

 Vector    1  Occ=7.516588D-01  E= 0.000000D+00
              MO Center= -4.1D-06, -1.3D-05,  8.3D-05, r^2= 2.5D+00
   Bfn.  Coefficient  Atom+Function         Bfn.  Coefficient  Atom+Function  
  ----- ------------  ---------------      ----- ------------  ---------------
     2      0.507431  1 H  s                  7      0.507482  2 H  s          
     1      0.222652  1 H  s                  6      0.222646  2 H  s          

 Vector    2  Occ=2.356243D-01  E= 0.000000D+00
              MO Center=  5.9D-06,  4.7D-05, -7.4D-05, r^2= 2.7D+00
   Bfn.  Coefficient  Atom+Function         Bfn.  Coefficient  Atom+Function  
  ----- ------------  ---------------      ----- ------------  ---------------
     2     -0.528616  1 H  s                  7      0.528501  2 H  s          
     1     -0.277140  1 H  s                  6      0.277238  2 H  s          

 Vector    3  Occ=3.939823D-03  E= 0.000000D+00
              MO Center= -5.2D-04, -5.3D-06, -3.0D-03, r^2= 2.6D+00
   Bfn.  Coefficient  Atom+Function         Bfn.  Coefficient  Atom+Function  
  ----- ------------  ---------------      ----- ------------  ---------------
     1     -0.893409  1 H  s                  6     -0.893664  2 H  s          
     2      0.694558  1 H  s                  7      0.694593  2 H  s          
     5      0.031969  1 H  pz         

 Vector    4  Occ=2.701419D-03  E= 0.000000D+00
              MO Center= -1.5D-03, -5.6D-04,  2.1D-04, r^2= 3.2D+00
   Bfn.  Coefficient  Atom+Function         Bfn.  Coefficient  Atom+Function  
  ----- ------------  ---------------      ----- ------------  ---------------
     1     -0.923966  1 H  s                  6      0.923769  2 H  s          
     2      0.899156  1 H  s                  7     -0.899379  2 H  s          
    10     -0.031407  2 H  pz         

 Vector    5  Occ=1.029018D-03  E= 0.000000D+00
              MO Center=  4.5D-04,  1.0D-05, -9.0D-05, r^2= 2.0D+00
   Bfn.  Coefficient  Atom+Function         Bfn.  Coefficient  Atom+Function  
  ----- ------------  ---------------      ----- ------------  ---------------
     3     -0.705823  1 H  px                 8     -0.706834  2 H  px         
     4     -0.042885  1 H  py         

 Vector    6  Occ=1.013278D-03  E= 0.000000D+00
              MO Center= -2.5D-06, -1.4D-05,  3.6D-04, r^2= 2.0D+00
   Bfn.  Coefficient  Atom+Function         Bfn.  Coefficient  Atom+Function  
  ----- ------------  ---------------      ----- ------------  ---------------
     4     -0.705026  1 H  py                 9     -0.706748  2 H  py         
     5     -0.044911  1 H  pz                 3      0.028002  1 H  px         

 Vector    7  Occ=1.053643D-03  E= 0.000000D+00
              MO Center=  8.9D-06,  5.8D-04, -4.7D-04, r^2= 2.0D+00
   Bfn.  Coefficient  Atom+Function         Bfn.  Coefficient  Atom+Function  
  ----- ------------  ---------------      ----- ------------  ---------------
     4      0.705742  1 H  py                 9     -0.705066  2 H  py         
    10      0.052020  2 H  pz                 3     -0.042939  1 H  px         

 Vector    8  Occ=9.892515D-04  E= 0.000000D+00
              MO Center=  1.7D-03,  4.6D-05,  9.8D-05, r^2= 2.0D+00
   Bfn.  Coefficient  Atom+Function         Bfn.  Coefficient  Atom+Function  
  ----- ------------  ---------------      ----- ------------  ---------------
     3     -0.706073  1 H  px                 8      0.705510  2 H  px         
    10     -0.046261  2 H  pz                 4     -0.026454  1 H  py         
     5     -0.025863  1 H  pz         

 Vector    9  Occ=1.010227D-03  E= 0.000000D+00
              MO Center=  3.4D-05,  8.9D-05,  3.1D-03, r^2= 2.0D+00
   Bfn.  Coefficient  Atom+Function         Bfn.  Coefficient  Atom+Function  
  ----- ------------  ---------------      ----- ------------  ---------------
     5     -0.705565  1 H  pz                10      0.705880  2 H  pz         
     2      0.064700  1 H  s                  1     -0.058541  1 H  s          
     9      0.052334  2 H  py                 7      0.043573  2 H  s          
     6     -0.036812  2 H  s          

 Vector   10  Occ=9.802291D-04  E= 0.000000D+00
              MO Center= -1.2D-04, -1.8D-04, -2.4D-04, r^2= 2.0D+00
   Bfn.  Coefficient  Atom+Function         Bfn.  Coefficient  Atom+Function  
  ----- ------------  ---------------      ----- ------------  ---------------
     5     -0.706473  1 H  pz                10     -0.704143  2 H  pz         
     7      0.076010  2 H  s                  6     -0.063378  2 H  s          
     2     -0.062150  1 H  s                  1      0.045664  1 H  s          
     4      0.045499  1 H  py                 8     -0.045424  2 H  px         


 Task  times  cpu:     2884.3s     wall:     3364.1s
 Summary of allocated global arrays
-----------------------------------
  No active global arrays



                         GA Statistics for process    0
                         ------------------------------

       create   destroy   get      put      acc     scatter   gather  read&inc
calls:   44       44     1.05e+09 4.50e+05 5.97e+05    0        0       11     
number of processes/call 1.00e+00 1.00e+00 1.00e+00 0.00e+00 0.00e+00
bytes total:             8.38e+11 4.78e+08 5.97e+08 0.00e+00 0.00e+00 8.80e+01
bytes remote:            0.00e+00 0.00e+00 0.00e+00 0.00e+00 0.00e+00 0.00e+00
Max memory consumed for GA by this process: 268000 bytes
MA_summarize_allocated_blocks: starting scan ...
MA_summarize_allocated_blocks: scan completed: 0 heap blocks, 0 stack blocks
MA usage statistics:

	allocation statistics:
					      heap	     stack
					      ----	     -----
	current number of blocks	         0	         0
	maximum number of blocks	        19	        17
	current total bytes		         0	         0
	maximum total bytes		   3205448	  22508648
	maximum total K-bytes		      3206	     22509
	maximum total M-bytes		         4	        23


                                NWChem Input Module
                                -------------------





                                     CITATION
                                     --------
                Please cite the following reference when publishing
                           results obtained with NWChem:

                 M. Valiev, E.J. Bylaska, N. Govind, K. Kowalski,
              T.P. Straatsma, H.J.J. van Dam, D. Wang, J. Nieplocha,
                        E. Apra, T.L. Windus, W.A. de Jong
                 "NWChem: a comprehensive and scalable open-source
                  solution for large scale molecular simulations"
                      Comput. Phys. Commun. 181, 1477 (2010)
                           doi:10.1016/j.cpc.2010.04.018

                                      AUTHORS
                                      -------
          E. Apra, E. J. Bylaska, W. A. de Jong, N. Govind, K. Kowalski,
       T. P. Straatsma, M. Valiev, H. J. J. van Dam, D. Wang, T. L. Windus,
        J. Hammond, J. Autschbach, K. Bhaskaran-Nair, J. Brabec, K. Lopata,
    S. A. Fischer, S. Krishnamoorthy, M. Jacquelin, W. Ma, M. Klemm, O. Villa,
      Y. Chen, V. Anisimov, F. Aquino, S. Hirata, M. T. Hackler, V. Konjkov,
      T. Risthaus, M. Malagoli, A. Marenich, A. Otero-de-la-Roza, J. Mullin,
        P. Nichols, R. Peverati, J. Pittner, Y. Zhao, P.-D. Fan, A. Fonari,
       M. Williamson, R. J. Harrison, J. R. Rehr, M. Dupuis, D. Silverstein,
    D. M. A. Smith, J. Nieplocha, V. Tipparaju, M. Krishnan, B. E. Van Kuiken,
        A. Vazquez-Mayagoitia, L. Jensen, M. Swart, Q. Wu, T. Van Voorhis,
     A. A. Auer, M. Nooijen, L. D. Crosby, E. Brown, G. Cisneros, G. I. Fann,
   H. Fruchtl, J. Garza, K. Hirao, R. A. Kendall, J. A. Nichols, K. Tsemekhman,
    K. Wolinski, J. Anchell, D. E. Bernholdt, P. Borowski, T. Clark, D. Clerc,
   H. Dachsel, M. J. O. Deegan, K. Dyall, D. Elwood, E. Glendening, M. Gutowski,
   A. C. Hess, J. Jaffe, B. G. Johnson, J. Ju, R. Kobayashi, R. Kutteh, Z. Lin,
   R. Littlefield, X. Long, B. Meng, T. Nakajima, S. Niu, L. Pollack, M. Rosing,
   K. Glaesemann, G. Sandrone, M. Stave, H. Taylor, G. Thomas, J. H. van Lenthe,
                               A. T. Wong, Z. Zhang.

 Total times  cpu:     2884.3s     wall:     3364.1s
