 argument  1 = input-wf.nw



============================== echo of input deck ==============================
echo
start wfn1_dat
geometry units au noautoz
  H 0 0 -1.34434600000000000000
  H 0 0  1.34434600000000000000
  symmetry cs
end
basis
  H library 6-31g**
end
set wfn1:input_vectors "atomic"
set wfn1:solver "monte-carlo"
set wfn1:print_error F
set wfn1:t_initial 0.1
#set wfn1:corr_expr "wfn1_mx"
set wfn1:corr_expr "wfn1c"
set wfn1:t_bath 0.0
set wfn1:maxit  20000
task wfn1 energy
================================================================================


                                         
                                         


              Northwest Computational Chemistry Package (NWChem) 6.8
              ------------------------------------------------------


                    Environmental Molecular Sciences Laboratory
                       Pacific Northwest National Laboratory
                                Richland, WA 99352

                              Copyright (c) 1994-2015
                       Pacific Northwest National Laboratory
                            Battelle Memorial Institute

             NWChem is an open-source computational chemistry package
                        distributed under the terms of the
                      Educational Community License (ECL) 2.0
             A copy of the license is included with this distribution
                              in the LICENSE.TXT file

                                  ACKNOWLEDGMENT
                                  --------------

            This software and its documentation were developed at the
            EMSL at Pacific Northwest National Laboratory, a multiprogram
            national laboratory, operated for the U.S. Department of Energy
            by Battelle under Contract Number DE-AC05-76RL01830. Support
            for this work was provided by the Department of Energy Office
            of Biological and Environmental Research, Office of Basic
            Energy Sciences, and the Office of Advanced Scientific Computing.


           Job information
           ---------------

    hostname        = erato
    program         = ../../../bin/LINUX64/nwchem
    date            = Mon Mar  1 13:55:22 2021

    compiled        = Sun_Feb_28_18:02:42_2021
    source          = /home/hvandam/nwchem-1-wfn1
    nwchem branch   = Development
    nwchem revision = nwchem_on_git-124-gad72d19fff205e319ffbbf2bca37a04ded6ad57b
    ga revision     = nwchem_on_git-124-gad72d19
    use scalapack   = F
    input           = input-wf.nw
    prefix          = wfn1_dat.
    data base       = ./wfn1_dat.db
    status          = startup
    nproc           =        1
    time left       =     -1s



           Memory information
           ------------------

    heap     =   13107200 doubles =    100.0 Mbytes
    stack    =   13107197 doubles =    100.0 Mbytes
    global   =   26214400 doubles =    200.0 Mbytes (distinct from heap & stack)
    total    =   52428797 doubles =    400.0 Mbytes
    verify   = yes
    hardfail = no 


           Directory information
           ---------------------

  0 permanent = .
  0 scratch   = .




                                NWChem Input Module
                                -------------------


 Turning off AUTOSYM since
 SYMMETRY directive was detected!



                             Geometry "geometry" -> ""
                             -------------------------

 Output coordinates in a.u. (scale by  1.000000000 to convert to a.u.)

  No.       Tag          Charge          X              Y              Z
 ---- ---------------- ---------- -------------- -------------- --------------
    1 H                    1.0000     0.00000000     0.00000000    -1.34434600
    2 H                    1.0000     0.00000000     0.00000000     1.34434600

      Atomic Mass 
      ----------- 

      H                  1.007825


 Effective nuclear repulsion energy (a.u.)       0.3719280602

            Nuclear Dipole moment (a.u.) 
            ----------------------------
        X                 Y               Z
 ---------------- ---------------- ----------------
     0.0000000000     0.0000000000     0.0000000000

      Symmetry information
      --------------------

 Group name             Cs        
 Group number              2
 Group order               2
 No. of unique centers     1

      Symmetry unique atoms

     1


            XYZ format geometry
            -------------------
     2
 geometry
 H                     0.00000000     0.00000000    -0.71139732
 H                     0.00000000     0.00000000     0.71139732

                      Basis "ao basis" -> "" (cartesian)
                      -----
  H (Hydrogen)
  ------------
            Exponent  Coefficients 
       -------------- ---------------------------------------------------------
  1 S  1.87311370E+01  0.033495
  1 S  2.82539370E+00  0.234727
  1 S  6.40121700E-01  0.813757

  2 S  1.61277800E-01  1.000000

  3 P  1.10000000E+00  1.000000



 Summary of "ao basis" -> "" (cartesian)
 ------------------------------------------------------------------------------
       Tag                 Description            Shells   Functions and Types
 ---------------- ------------------------------  ------  ---------------------
 H                          6-31g**                  3        5   2s1p



                                NWChem WFN1 Module
                                ------------------



          No. of electrons :     2
           Alpha electrons :     1
            Beta electrons :     1
          Charge           :     0
          Spin multiplicity:     1

 HvD: wfn1_inpdft
 HvD: nquad_task =                     1
 HvD: iangquad   =                     0
 HvD: gridtype   = user      
 HvD: leb        =  T
 HvD: radgrid    = murakn    
 HvD: trunc_neigh=  T
 HvD: lssw       =  T
 HvD: whichssw   = erf1    
 HvD: mxnrad     =                     0
 HvD: mxnang     =                     0
 HVD: wfn1: movecs_in  = atomic                                                                                                                                                                                                                                                          
 HVD: wfn1: movecs_out = ./wfn1_dat.movecs                                                                                                                                                                                                                                               

      Superposition of Atomic Density Guess
      -------------------------------------

 Sum of atomic energies:          -0.99646508

      Non-variational initial energy
      ------------------------------

 Total energy =      -0.735265
 1-e energy   =      -1.730008
 2-e energy   =       0.622815
 HOMO         =      -0.354265
 LUMO         =      -0.010326

 iteration              energy           error
 ---------              ------           -----
         0         -1.01015337        0.200000
         1         -1.01017200        0.200000
         2         -1.01105172        0.200000
         3         -1.01121610        0.200000
         4         -1.01205607        0.200000
         5         -1.01256606        0.200000
         6         -1.01287043        0.200000
         7         -1.01395980        0.200000
         8         -1.01423537        0.158740
         9         -1.01470474        0.158740
        10         -1.01490046        0.158740
        11         -1.01544396        0.158740
        12         -1.01557223        0.146973
        13         -1.01568306        0.136079
        14         -1.01615137        0.136079
        15         -1.01628446        0.125992
        16         -1.01640428        0.108006
        17         -1.01649271        0.108006
        18         -1.01669863        0.108006
        19         -1.01684950        0.100000
        20         -1.01702454        0.100000
        21         -1.01704674        0.085724
        22         -1.01708824        0.085724
        23         -1.01720797        0.085724
        24         -1.01740739        0.085724
        25         -1.01753126        0.085724
        26         -1.01757103        0.079370
        27         -1.01760221        0.073487
        28         -1.01762280        0.073487
        29         -1.01773249        0.073487
        30         -1.01775387        0.073487
        31         -1.01792309        0.054003
        32         -1.01798042        0.054003
        33         -1.01798832        0.046294
        34         -1.01805314        0.042862
        35         -1.01805513        0.042862
        36         -1.01814739        0.042862
        37         -1.01816467        0.036743
        38         -1.01833645        0.034020
        39         -1.01838056        0.029163
        40         -1.01842573        0.015749
        41         -1.01843103        0.009186
        42         -1.01848391        0.006750
        43         -1.01852332        0.005358
        44         -1.01852792        0.002126
        45         -1.01853489        0.001339
        46         -1.01853588        0.000781
        47         -1.01854696        0.000781
        48         -1.01854783        0.000574
        49         -1.01855391        0.000492
        50         -1.01855485        0.000391
        51         -1.01855748        0.000391
        52         -1.01856671        0.000310
        53         -1.01857190        0.000246
        54         -1.01857316        0.000155
        55         -1.01857807        0.000155
        56         -1.01857954        0.000090
        57         -1.01858372        0.000057
        58         -1.01858657        0.000053
        59         -1.01858679        0.000036
        60         -1.01858726        0.000015
        61         -1.01858749        0.000015
        62         -1.01859003        0.000014
        63         -1.01859024        0.000013
        64         -1.01859407        0.000010
        65         -1.01859419        0.000009
        66         -1.01859435        0.000009
        67         -1.01859506        0.000002
        68         -1.01859525        0.000002
        69         -1.01859581        0.000001
        70         -1.01859600        0.000001

 Reached Convergence

 WFN1                     :
 --------------------------
 Total WFN1 energy  =          -1.0185959987
 1-Electron energy  =          -1.8636614752
 2-Electron energy  =           0.4896509799
 Correlation energy =          -0.0165135637
 DFT XC energy      =           0.0000000000
 Entropy energy     =           0.0000000000
 Nuclear energy     =           0.3719280602

 conventional Hartree-Fock:
 --------------------------
 Total SCF energy  =          -1.0079083379
 2-Electron energy =           0.5003386408

                WFN1 Final Natural orbital energies and occupations
                ---------------------------------------------------

              Alpha       Beta            Alpha       Beta  
            --------    --------        --------    --------
       1      0.0000      0.0000          0.9828      0.9828
       2      0.0000      0.0000          0.0153      0.0153
       3      0.0000      0.0000          0.0007      0.0007
       4      0.0000      0.0000          0.0008      0.0008
       5      0.0000      0.0000          0.0002      0.0002
       6      0.0000      0.0000          0.0001      0.0001
       7      0.0000      0.0000          0.0000      0.0000
       8      0.0000      0.0000          0.0000      0.0000
       9      0.0000      0.0000          0.0001      0.0001
      10      0.0000      0.0000          0.0001      0.0001

             WFN1 Final Correlation function energies and occupations
             --------------------------------------------------------

              Alpha       Beta            Alpha       Beta  
            --------    --------        --------    --------
       1      0.0000      0.0000          1.0000      1.0000
       2      0.0000      0.0000          0.0000      0.0000
       3      0.0000      0.0000          0.0000      0.0000
       4      0.0000      0.0000          0.0000      0.0000
       5      0.0000      0.0000          0.0000      0.0000
       6      0.0000      0.0000          0.0000      0.0000
       7      0.0000      0.0000          0.0000      0.0000
       8      0.0000      0.0000          0.0000      0.0000
       9      0.0000      0.0000          0.0000      0.0000
      10      0.0000      0.0000          0.0000      0.0000

                WFN1 Final alpha-alpha 2-matrix occupation numbers
                --------------------------------------------------


 global array: g_momo1[1:10,1:10],  handle: -990 

            1           2           3           4           5           6  
       ----------- ----------- ----------- ----------- ----------- -----------
   1       0.00000     0.00000     0.00000     0.00000     0.00000     0.00000
   2      -0.00000     0.00000     0.00000     0.00000     0.00000     0.00000
   3       0.00000     0.00000    -0.00000     0.00000    -0.00000     0.00000
   4       0.00000    -0.00000     0.00000     0.00000     0.00000     0.00000
   5       0.00000     0.00000    -0.00000    -0.00000    -0.00000     0.00000
   6       0.00000     0.00000     0.00000     0.00000     0.00000     0.00000
   7       0.00000     0.00000    -0.00000     0.00000     0.00000     0.00000
   8       0.00000    -0.00000     0.00000     0.00000     0.00000     0.00000
   9       0.00000     0.00000    -0.00000     0.00000     0.00000     0.00000
  10       0.00000     0.00000     0.00000     0.00000     0.00000     0.00000

            7           8           9          10  
       ----------- ----------- ----------- -----------
   1       0.00000     0.00000     0.00000     0.00000
   2       0.00000     0.00000     0.00000     0.00000
   3       0.00000    -0.00000     0.00000     0.00000
   4       0.00000     0.00000     0.00000    -0.00000
   5       0.00000     0.00000     0.00000     0.00000
   6       0.00000     0.00000     0.00000     0.00000
   7       0.00000    -0.00000     0.00000     0.00000
   8       0.00000    -0.00000     0.00000    -0.00000
   9       0.00000     0.00000     0.00000     0.00000
  10       0.00000     0.00000     0.00000     0.00000

                 WFN1 Final beta-beta 2-matrix occupation numbers
                 ------------------------------------------------


 global array: g_momo2[1:10,1:10],  handle: -989 

            1           2           3           4           5           6  
       ----------- ----------- ----------- ----------- ----------- -----------
   1       0.00000     0.00000     0.00000     0.00000     0.00000     0.00000
   2      -0.00000     0.00000     0.00000     0.00000     0.00000     0.00000
   3       0.00000     0.00000    -0.00000     0.00000    -0.00000     0.00000
   4       0.00000    -0.00000     0.00000     0.00000     0.00000     0.00000
   5       0.00000     0.00000    -0.00000    -0.00000    -0.00000     0.00000
   6       0.00000     0.00000     0.00000     0.00000     0.00000     0.00000
   7       0.00000     0.00000    -0.00000     0.00000     0.00000     0.00000
   8       0.00000    -0.00000     0.00000     0.00000     0.00000     0.00000
   9       0.00000     0.00000    -0.00000     0.00000     0.00000     0.00000
  10       0.00000     0.00000     0.00000     0.00000     0.00000     0.00000

            7           8           9          10  
       ----------- ----------- ----------- -----------
   1       0.00000     0.00000     0.00000     0.00000
   2       0.00000     0.00000     0.00000     0.00000
   3       0.00000    -0.00000     0.00000     0.00000
   4       0.00000     0.00000     0.00000    -0.00000
   5       0.00000     0.00000     0.00000     0.00000
   6       0.00000     0.00000     0.00000     0.00000
   7       0.00000    -0.00000     0.00000     0.00000
   8       0.00000    -0.00000     0.00000    -0.00000
   9       0.00000     0.00000     0.00000     0.00000
  10       0.00000     0.00000     0.00000     0.00000

                  WFN1 Final alpha Correlation Function Analysis
                  ----------------------------------------------


 global array: Ca[1:10,1:10],  handle: -981 

                     1                       2                       3                       4                       5                       6  
       ----------------------- ----------------------- ----------------------- ----------------------- ----------------------- -----------------------
   1      -0.66813,   -0.73239     0.08790,    0.08348    -0.02844,   -0.03348    -0.00422,    0.01104     0.00749,    0.01512    -0.00028,    0.00250
   2      -0.10072,    0.07213    -0.76089,    0.63277     0.04589,   -0.02992    -0.01965,    0.00758    -0.01281,   -0.00054    -0.00848,   -0.00609
   3       0.02431,   -0.00883    -0.02769,    0.01512    -0.61848,    0.40274    -0.56052,    0.36701     0.01197,    0.00793     0.00465,   -0.00591
   4       0.02553,   -0.01115    -0.05235,    0.01501    -0.66313,    0.06508     0.73597,   -0.07048     0.00637,    0.00698    -0.00529,   -0.01762
   5       0.00457,    0.01185    -0.00305,   -0.00743     0.02070,    0.00600    -0.00466,   -0.00286     0.16540,    0.89863    -0.06144,   -0.39666
   6       0.00112,   -0.00728     0.00348,    0.00164    -0.00362,    0.01136    -0.00771,   -0.01939     0.08527,   -0.23521     0.21390,   -0.58226
   7       0.00000,   -0.00000    -0.00793,    0.00169     0.03588,    0.00124    -0.00569,    0.01538     0.23444,    0.11350     0.52176,    0.24819
   8      -0.00000,   -0.00000    -0.02625,   -0.01908     0.00527,   -0.00690     0.03714,   -0.00797     0.06724,    0.11478     0.12048,    0.21673
   9       0.00178,    0.00711    -0.02160,    0.01430    -0.04860,   -0.04114     0.01596,   -0.02310    -0.01216,    0.11789    -0.10090,    0.21728
  10      -0.00569,    0.01076    -0.00678,   -0.00835    -0.00117,   -0.01867     0.02342,    0.02031    -0.03957,    0.02493    -0.02980,   -0.00285

                     7                       8                       9                      10  
       ----------------------- ----------------------- ----------------------- -----------------------
   1       0.00166,    0.00295    -0.00019,    0.00328     0.00186,    0.00043     0.00101,    0.01125
   2       0.01870,   -0.01000    -0.00822,   -0.00790    -0.02517,    0.01687    -0.00364,   -0.00814
   3      -0.02807,    0.00030    -0.02628,    0.00172     0.03714,    0.03631    -0.00649,    0.01609
   4      -0.02197,   -0.02520    -0.00486,   -0.04845    -0.02763,    0.00798    -0.00211,   -0.03031
   5       0.01428,    0.01991     0.02141,   -0.02628    -0.01871,   -0.00146     0.00119,   -0.03431
   6       0.21193,   -0.59582    -0.12279,    0.25067     0.09616,   -0.25277     0.00854,    0.03083
   7      -0.59074,   -0.27542    -0.24180,   -0.11356    -0.29663,   -0.11040    -0.00475,    0.01758
   8      -0.12185,   -0.27760     0.31413,    0.54737     0.31072,    0.57480    -0.02877,   -0.01671
   9      -0.13686,    0.24540    -0.32117,    0.58311     0.31406,   -0.54216     0.07942,   -0.04459
  10      -0.01923,    0.03260    -0.03918,    0.05807     0.00106,   -0.04866    -0.88142,    0.45796

                   WFN1 Final beta Correlation Function Analysis
                   ---------------------------------------------


 global array: Cb[1:10,1:10],  handle: -980 

                     1                       2                       3                       4                       5                       6  
       ----------------------- ----------------------- ----------------------- ----------------------- ----------------------- -----------------------
   1      -0.66813,   -0.73239     0.08790,    0.08348    -0.02844,   -0.03348    -0.00422,    0.01104     0.00749,    0.01512    -0.00028,    0.00250
   2      -0.10072,    0.07213    -0.76089,    0.63277     0.04589,   -0.02992    -0.01965,    0.00758    -0.01281,   -0.00054    -0.00848,   -0.00609
   3       0.02431,   -0.00883    -0.02769,    0.01512    -0.61848,    0.40274    -0.56052,    0.36701     0.01197,    0.00793     0.00465,   -0.00591
   4       0.02553,   -0.01115    -0.05235,    0.01501    -0.66313,    0.06508     0.73597,   -0.07048     0.00637,    0.00698    -0.00529,   -0.01762
   5       0.00457,    0.01185    -0.00305,   -0.00743     0.02070,    0.00600    -0.00466,   -0.00286     0.16540,    0.89863    -0.06144,   -0.39666
   6       0.00112,   -0.00728     0.00348,    0.00164    -0.00362,    0.01136    -0.00771,   -0.01939     0.08527,   -0.23521     0.21390,   -0.58226
   7       0.00000,   -0.00000    -0.00793,    0.00169     0.03588,    0.00124    -0.00569,    0.01538     0.23444,    0.11350     0.52176,    0.24819
   8      -0.00000,   -0.00000    -0.02625,   -0.01908     0.00527,   -0.00690     0.03714,   -0.00797     0.06724,    0.11478     0.12048,    0.21673
   9       0.00178,    0.00711    -0.02160,    0.01430    -0.04860,   -0.04114     0.01596,   -0.02310    -0.01216,    0.11789    -0.10090,    0.21728
  10      -0.00569,    0.01076    -0.00678,   -0.00835    -0.00117,   -0.01867     0.02342,    0.02031    -0.03957,    0.02493    -0.02980,   -0.00285

                     7                       8                       9                      10  
       ----------------------- ----------------------- ----------------------- -----------------------
   1       0.00166,    0.00295    -0.00019,    0.00328     0.00186,    0.00043     0.00101,    0.01125
   2       0.01870,   -0.01000    -0.00822,   -0.00790    -0.02517,    0.01687    -0.00364,   -0.00814
   3      -0.02807,    0.00030    -0.02628,    0.00172     0.03714,    0.03631    -0.00649,    0.01609
   4      -0.02197,   -0.02520    -0.00486,   -0.04845    -0.02763,    0.00798    -0.00211,   -0.03031
   5       0.01428,    0.01991     0.02141,   -0.02628    -0.01871,   -0.00146     0.00119,   -0.03431
   6       0.21193,   -0.59582    -0.12279,    0.25067     0.09616,   -0.25277     0.00854,    0.03083
   7      -0.59074,   -0.27542    -0.24180,   -0.11356    -0.29663,   -0.11040    -0.00475,    0.01758
   8      -0.12185,   -0.27760     0.31413,    0.54737     0.31072,    0.57480    -0.02877,   -0.01671
   9      -0.13686,    0.24540    -0.32117,    0.58311     0.31406,   -0.54216     0.07942,   -0.04459
  10      -0.01923,    0.03260    -0.03918,    0.05807     0.00106,   -0.04866    -0.88142,    0.45796

                     WFN1 Final Alpha Natural Orbital Analysis
                     -----------------------------------------

 Vector    1  Occ=9.827898D-01  E= 0.000000D+00
              MO Center=  1.5D-03, -2.4D-04, -4.2D-03, r^2= 1.2D+00
   Bfn.  Coefficient  Atom+Function         Bfn.  Coefficient  Atom+Function  
  ----- ------------  ---------------      ----- ------------  ---------------
     7     -0.405806  2 H  s                  2     -0.403548  1 H  s          
     1     -0.245641  1 H  s                  6     -0.239463  2 H  s          

 Vector    2  Occ=1.534783D-02  E= 0.000000D+00
              MO Center= -2.0D-03, -1.4D-02,  8.0D-03, r^2= 1.9D+00
   Bfn.  Coefficient  Atom+Function         Bfn.  Coefficient  Atom+Function  
  ----- ------------  ---------------      ----- ------------  ---------------
     7     -0.822090  2 H  s                  2      0.793067  1 H  s          
     1      0.258815  1 H  s                  6     -0.223259  2 H  s          
     9      0.041242  2 H  py                 8      0.029180  2 H  px         

 Vector    3  Occ=6.687824D-04  E= 0.000000D+00
              MO Center= -3.9D-03, -2.4D-03, -2.3D-02, r^2= 2.0D+00
   Bfn.  Coefficient  Atom+Function         Bfn.  Coefficient  Atom+Function  
  ----- ------------  ---------------      ----- ------------  ---------------
     2     -1.122379  1 H  s                  7      1.096602  2 H  s          
     1      0.922501  1 H  s                  6     -0.900013  2 H  s          
     8      0.037514  2 H  px                10     -0.035323  2 H  pz         
     9      0.034920  2 H  py         

 Vector    4  Occ=7.760733D-04  E= 0.000000D+00
              MO Center=  1.1D-03, -3.0D-03,  2.1D-02, r^2= 1.6D+00
   Bfn.  Coefficient  Atom+Function         Bfn.  Coefficient  Atom+Function  
  ----- ------------  ---------------      ----- ------------  ---------------
     6      0.946877  2 H  s                  1      0.906226  1 H  s          
     7     -0.696156  2 H  s                  2     -0.688105  1 H  s          
     5      0.073795  1 H  pz                10     -0.069470  2 H  pz         
     4     -0.039074  1 H  py         

 Vector    5  Occ=1.612793D-04  E= 0.000000D+00
              MO Center=  8.6D-05,  2.4D-03, -5.1D-02, r^2= 8.7D-01
   Bfn.  Coefficient  Atom+Function         Bfn.  Coefficient  Atom+Function  
  ----- ------------  ---------------      ----- ------------  ---------------
     5     -0.693086  1 H  pz                10      0.633201  2 H  pz         
     1      0.146719  1 H  s                  6      0.078309  2 H  s          
     2     -0.067615  1 H  s                  7      0.049431  2 H  s          
     9      0.043583  2 H  py         

 Vector    6  Occ=5.426329D-05  E= 0.000000D+00
              MO Center= -1.7D-03,  2.0D-03, -2.9D-02, r^2= 8.1D-01
   Bfn.  Coefficient  Atom+Function         Bfn.  Coefficient  Atom+Function  
  ----- ------------  ---------------      ----- ------------  ---------------
     4     -0.543644  1 H  py                 9     -0.527713  2 H  py         
     3      0.463669  1 H  px                 8      0.436557  2 H  px         
     6     -0.032286  2 H  s                 10      0.030969  2 H  pz         
     7      0.025610  2 H  s          

 Vector    7  Occ=1.744521D-17  E= 0.000000D+00
              MO Center= -8.7D-05, -4.0D-04,  3.5D-02, r^2= 8.2D-01
   Bfn.  Coefficient  Atom+Function         Bfn.  Coefficient  Atom+Function  
  ----- ------------  ---------------      ----- ------------  ---------------
     8      0.552466  2 H  px                 3      0.517130  1 H  px         
     9      0.455993  2 H  py                 4      0.439967  1 H  py         
     6      0.066603  2 H  s                  1     -0.056403  1 H  s          
     5      0.049591  1 H  pz                 7     -0.035002  2 H  s          

 Vector    8  Occ=2.837365D-18  E= 0.000000D+00
              MO Center= -3.4D-03,  4.2D-03,  2.9D-02, r^2= 8.3D-01
   Bfn.  Coefficient  Atom+Function         Bfn.  Coefficient  Atom+Function  
  ----- ------------  ---------------      ----- ------------  ---------------
     9     -0.565248  2 H  py                 4      0.538727  1 H  py         
     8      0.457699  2 H  px                 3     -0.442692  1 H  px         
     5     -0.049033  1 H  pz                10     -0.030999  2 H  pz         
     1      0.029019  1 H  s          

 Vector    9  Occ=5.376229D-05  E= 0.000000D+00
              MO Center=  1.1D-02,  8.8D-03, -4.0D-02, r^2= 8.3D-01
   Bfn.  Coefficient  Atom+Function         Bfn.  Coefficient  Atom+Function  
  ----- ------------  ---------------      ----- ------------  ---------------
     3      0.564287  1 H  px                 8     -0.541103  2 H  px         
     4      0.467659  1 H  py                 9     -0.433775  2 H  py         
     1      0.034985  1 H  s          

 Vector   10  Occ=1.482131D-04  E= 0.000000D+00
              MO Center= -2.4D-03,  2.2D-03,  5.4D-02, r^2= 8.9D-01
   Bfn.  Coefficient  Atom+Function         Bfn.  Coefficient  Atom+Function  
  ----- ------------  ---------------      ----- ------------  ---------------
    10     -0.804541  2 H  pz                 5     -0.751901  1 H  pz         
     2     -0.288693  1 H  s                  7      0.285846  2 H  s          
     3      0.052031  1 H  px                 6     -0.049408  2 H  s          
     1      0.042462  1 H  s                  9      0.038089  2 H  py         


                     WFN1 Final Beta Natural Orbital Analysis
                     ----------------------------------------

 Vector    1  Occ=9.827898D-01  E= 0.000000D+00
              MO Center=  1.5D-03, -2.4D-04, -4.2D-03, r^2= 1.2D+00
   Bfn.  Coefficient  Atom+Function         Bfn.  Coefficient  Atom+Function  
  ----- ------------  ---------------      ----- ------------  ---------------
     7     -0.405806  2 H  s                  2     -0.403548  1 H  s          
     1     -0.245641  1 H  s                  6     -0.239463  2 H  s          

 Vector    2  Occ=1.534783D-02  E= 0.000000D+00
              MO Center= -2.0D-03, -1.4D-02,  8.0D-03, r^2= 1.9D+00
   Bfn.  Coefficient  Atom+Function         Bfn.  Coefficient  Atom+Function  
  ----- ------------  ---------------      ----- ------------  ---------------
     7     -0.822090  2 H  s                  2      0.793067  1 H  s          
     1      0.258815  1 H  s                  6     -0.223259  2 H  s          
     9      0.041242  2 H  py                 8      0.029180  2 H  px         

 Vector    3  Occ=6.687824D-04  E= 0.000000D+00
              MO Center= -3.9D-03, -2.4D-03, -2.3D-02, r^2= 2.0D+00
   Bfn.  Coefficient  Atom+Function         Bfn.  Coefficient  Atom+Function  
  ----- ------------  ---------------      ----- ------------  ---------------
     2     -1.122379  1 H  s                  7      1.096602  2 H  s          
     1      0.922501  1 H  s                  6     -0.900013  2 H  s          
     8      0.037514  2 H  px                10     -0.035323  2 H  pz         
     9      0.034920  2 H  py         

 Vector    4  Occ=7.760733D-04  E= 0.000000D+00
              MO Center=  1.1D-03, -3.0D-03,  2.1D-02, r^2= 1.6D+00
   Bfn.  Coefficient  Atom+Function         Bfn.  Coefficient  Atom+Function  
  ----- ------------  ---------------      ----- ------------  ---------------
     6      0.946877  2 H  s                  1      0.906226  1 H  s          
     7     -0.696156  2 H  s                  2     -0.688105  1 H  s          
     5      0.073795  1 H  pz                10     -0.069470  2 H  pz         
     4     -0.039074  1 H  py         

 Vector    5  Occ=1.612793D-04  E= 0.000000D+00
              MO Center=  8.6D-05,  2.4D-03, -5.1D-02, r^2= 8.7D-01
   Bfn.  Coefficient  Atom+Function         Bfn.  Coefficient  Atom+Function  
  ----- ------------  ---------------      ----- ------------  ---------------
     5     -0.693086  1 H  pz                10      0.633201  2 H  pz         
     1      0.146719  1 H  s                  6      0.078309  2 H  s          
     2     -0.067615  1 H  s                  7      0.049431  2 H  s          
     9      0.043583  2 H  py         

 Vector    6  Occ=5.426329D-05  E= 0.000000D+00
              MO Center= -1.7D-03,  2.0D-03, -2.9D-02, r^2= 8.1D-01
   Bfn.  Coefficient  Atom+Function         Bfn.  Coefficient  Atom+Function  
  ----- ------------  ---------------      ----- ------------  ---------------
     4     -0.543644  1 H  py                 9     -0.527713  2 H  py         
     3      0.463669  1 H  px                 8      0.436557  2 H  px         
     6     -0.032286  2 H  s                 10      0.030969  2 H  pz         
     7      0.025610  2 H  s          

 Vector    7  Occ=1.744521D-17  E= 0.000000D+00
              MO Center= -8.7D-05, -4.0D-04,  3.5D-02, r^2= 8.2D-01
   Bfn.  Coefficient  Atom+Function         Bfn.  Coefficient  Atom+Function  
  ----- ------------  ---------------      ----- ------------  ---------------
     8      0.552466  2 H  px                 3      0.517130  1 H  px         
     9      0.455993  2 H  py                 4      0.439967  1 H  py         
     6      0.066603  2 H  s                  1     -0.056403  1 H  s          
     5      0.049591  1 H  pz                 7     -0.035002  2 H  s          

 Vector    8  Occ=2.837365D-18  E= 0.000000D+00
              MO Center= -3.4D-03,  4.2D-03,  2.9D-02, r^2= 8.3D-01
   Bfn.  Coefficient  Atom+Function         Bfn.  Coefficient  Atom+Function  
  ----- ------------  ---------------      ----- ------------  ---------------
     9     -0.565248  2 H  py                 4      0.538727  1 H  py         
     8      0.457699  2 H  px                 3     -0.442692  1 H  px         
     5     -0.049033  1 H  pz                10     -0.030999  2 H  pz         
     1      0.029019  1 H  s          

 Vector    9  Occ=5.376229D-05  E= 0.000000D+00
              MO Center=  1.1D-02,  8.8D-03, -4.0D-02, r^2= 8.3D-01
   Bfn.  Coefficient  Atom+Function         Bfn.  Coefficient  Atom+Function  
  ----- ------------  ---------------      ----- ------------  ---------------
     3      0.564287  1 H  px                 8     -0.541103  2 H  px         
     4      0.467659  1 H  py                 9     -0.433775  2 H  py         
     1      0.034985  1 H  s          

 Vector   10  Occ=1.482131D-04  E= 0.000000D+00
              MO Center= -2.4D-03,  2.2D-03,  5.4D-02, r^2= 8.9D-01
   Bfn.  Coefficient  Atom+Function         Bfn.  Coefficient  Atom+Function  
  ----- ------------  ---------------      ----- ------------  ---------------
    10     -0.804541  2 H  pz                 5     -0.751901  1 H  pz         
     2     -0.288693  1 H  s                  7      0.285846  2 H  s          
     3      0.052031  1 H  px                 6     -0.049408  2 H  s          
     1      0.042462  1 H  s                  9      0.038089  2 H  py         


 Task  times  cpu:      208.2s     wall:      280.0s
 Summary of allocated global arrays
-----------------------------------
  No active global arrays



                         GA Statistics for process    0
                         ------------------------------

       create   destroy   get      put      acc     scatter   gather  read&inc
calls:   44       44     5.59e+07 2.55e+04 3.20e+04    0        0       11     
number of processes/call 1.00e+00 1.00e+00 1.00e+00 0.00e+00 0.00e+00
bytes total:             4.48e+10 2.56e+07 3.19e+07 0.00e+00 0.00e+00 8.80e+01
bytes remote:            0.00e+00 0.00e+00 0.00e+00 0.00e+00 0.00e+00 0.00e+00
Max memory consumed for GA by this process: 268000 bytes
MA_summarize_allocated_blocks: starting scan ...
MA_summarize_allocated_blocks: scan completed: 0 heap blocks, 0 stack blocks
MA usage statistics:

	allocation statistics:
					      heap	     stack
					      ----	     -----
	current number of blocks	         0	         0
	maximum number of blocks	        19	        17
	current total bytes		         0	         0
	maximum total bytes		   3205416	  22508616
	maximum total K-bytes		      3206	     22509
	maximum total M-bytes		         4	        23


                                NWChem Input Module
                                -------------------





                                     CITATION
                                     --------
                Please cite the following reference when publishing
                           results obtained with NWChem:

                 M. Valiev, E.J. Bylaska, N. Govind, K. Kowalski,
              T.P. Straatsma, H.J.J. van Dam, D. Wang, J. Nieplocha,
                        E. Apra, T.L. Windus, W.A. de Jong
                 "NWChem: a comprehensive and scalable open-source
                  solution for large scale molecular simulations"
                      Comput. Phys. Commun. 181, 1477 (2010)
                           doi:10.1016/j.cpc.2010.04.018

                                      AUTHORS
                                      -------
          E. Apra, E. J. Bylaska, W. A. de Jong, N. Govind, K. Kowalski,
       T. P. Straatsma, M. Valiev, H. J. J. van Dam, D. Wang, T. L. Windus,
        J. Hammond, J. Autschbach, K. Bhaskaran-Nair, J. Brabec, K. Lopata,
    S. A. Fischer, S. Krishnamoorthy, M. Jacquelin, W. Ma, M. Klemm, O. Villa,
      Y. Chen, V. Anisimov, F. Aquino, S. Hirata, M. T. Hackler, V. Konjkov,
      T. Risthaus, M. Malagoli, A. Marenich, A. Otero-de-la-Roza, J. Mullin,
        P. Nichols, R. Peverati, J. Pittner, Y. Zhao, P.-D. Fan, A. Fonari,
       M. Williamson, R. J. Harrison, J. R. Rehr, M. Dupuis, D. Silverstein,
    D. M. A. Smith, J. Nieplocha, V. Tipparaju, M. Krishnan, B. E. Van Kuiken,
        A. Vazquez-Mayagoitia, L. Jensen, M. Swart, Q. Wu, T. Van Voorhis,
     A. A. Auer, M. Nooijen, L. D. Crosby, E. Brown, G. Cisneros, G. I. Fann,
   H. Fruchtl, J. Garza, K. Hirao, R. A. Kendall, J. A. Nichols, K. Tsemekhman,
    K. Wolinski, J. Anchell, D. E. Bernholdt, P. Borowski, T. Clark, D. Clerc,
   H. Dachsel, M. J. O. Deegan, K. Dyall, D. Elwood, E. Glendening, M. Gutowski,
   A. C. Hess, J. Jaffe, B. G. Johnson, J. Ju, R. Kobayashi, R. Kutteh, Z. Lin,
   R. Littlefield, X. Long, B. Meng, T. Nakajima, S. Niu, L. Pollack, M. Rosing,
   K. Glaesemann, G. Sandrone, M. Stave, H. Taylor, G. Thomas, J. H. van Lenthe,
                               A. T. Wong, Z. Zhang.

 Total times  cpu:      208.2s     wall:      280.0s
