 argument  1 = input-wf.nw



============================== echo of input deck ==============================
echo
start wfn1_dat
geometry units au noautoz
  H 0 0 -1.39434600000000000000
  H 0 0  1.39434600000000000000
  symmetry cs
end
basis
  H library 6-31g**
end
set wfn1:input_vectors "atomic"
set wfn1:solver "monte-carlo"
set wfn1:print_error F
set wfn1:t_initial 0.1
#set wfn1:corr_expr "wfn1_mx"
set wfn1:corr_expr "wfn1c"
set wfn1:t_bath 0.0
set wfn1:maxit  20000
task wfn1 energy
================================================================================


                                         
                                         


              Northwest Computational Chemistry Package (NWChem) 6.8
              ------------------------------------------------------


                    Environmental Molecular Sciences Laboratory
                       Pacific Northwest National Laboratory
                                Richland, WA 99352

                              Copyright (c) 1994-2015
                       Pacific Northwest National Laboratory
                            Battelle Memorial Institute

             NWChem is an open-source computational chemistry package
                        distributed under the terms of the
                      Educational Community License (ECL) 2.0
             A copy of the license is included with this distribution
                              in the LICENSE.TXT file

                                  ACKNOWLEDGMENT
                                  --------------

            This software and its documentation were developed at the
            EMSL at Pacific Northwest National Laboratory, a multiprogram
            national laboratory, operated for the U.S. Department of Energy
            by Battelle under Contract Number DE-AC05-76RL01830. Support
            for this work was provided by the Department of Energy Office
            of Biological and Environmental Research, Office of Basic
            Energy Sciences, and the Office of Advanced Scientific Computing.


           Job information
           ---------------

    hostname        = erato
    program         = ../../../bin/LINUX64/nwchem
    date            = Mon Mar  1 14:00:03 2021

    compiled        = Sun_Feb_28_18:02:42_2021
    source          = /home/hvandam/nwchem-1-wfn1
    nwchem branch   = Development
    nwchem revision = nwchem_on_git-124-gad72d19fff205e319ffbbf2bca37a04ded6ad57b
    ga revision     = nwchem_on_git-124-gad72d19
    use scalapack   = F
    input           = input-wf.nw
    prefix          = wfn1_dat.
    data base       = ./wfn1_dat.db
    status          = startup
    nproc           =        1
    time left       =     -1s



           Memory information
           ------------------

    heap     =   13107198 doubles =    100.0 Mbytes
    stack    =   13107195 doubles =    100.0 Mbytes
    global   =   26214400 doubles =    200.0 Mbytes (distinct from heap & stack)
    total    =   52428793 doubles =    400.0 Mbytes
    verify   = yes
    hardfail = no 


           Directory information
           ---------------------

  0 permanent = .
  0 scratch   = .




                                NWChem Input Module
                                -------------------


 Turning off AUTOSYM since
 SYMMETRY directive was detected!



                             Geometry "geometry" -> ""
                             -------------------------

 Output coordinates in a.u. (scale by  1.000000000 to convert to a.u.)

  No.       Tag          Charge          X              Y              Z
 ---- ---------------- ---------- -------------- -------------- --------------
    1 H                    1.0000     0.00000000     0.00000000    -1.39434600
    2 H                    1.0000     0.00000000     0.00000000     1.39434600

      Atomic Mass 
      ----------- 

      H                  1.007825


 Effective nuclear repulsion energy (a.u.)       0.3585910527

            Nuclear Dipole moment (a.u.) 
            ----------------------------
        X                 Y               Z
 ---------------- ---------------- ----------------
     0.0000000000     0.0000000000     0.0000000000

      Symmetry information
      --------------------

 Group name             Cs        
 Group number              2
 Group order               2
 No. of unique centers     1

      Symmetry unique atoms

     1


            XYZ format geometry
            -------------------
     2
 geometry
 H                     0.00000000     0.00000000    -0.73785618
 H                     0.00000000     0.00000000     0.73785618

                      Basis "ao basis" -> "" (cartesian)
                      -----
  H (Hydrogen)
  ------------
            Exponent  Coefficients 
       -------------- ---------------------------------------------------------
  1 S  1.87311370E+01  0.033495
  1 S  2.82539370E+00  0.234727
  1 S  6.40121700E-01  0.813757

  2 S  1.61277800E-01  1.000000

  3 P  1.10000000E+00  1.000000



 Summary of "ao basis" -> "" (cartesian)
 ------------------------------------------------------------------------------
       Tag                 Description            Shells   Functions and Types
 ---------------- ------------------------------  ------  ---------------------
 H                          6-31g**                  3        5   2s1p



                                NWChem WFN1 Module
                                ------------------



          No. of electrons :     2
           Alpha electrons :     1
            Beta electrons :     1
          Charge           :     0
          Spin multiplicity:     1

 HvD: wfn1_inpdft
 HvD: nquad_task =                     1
 HvD: iangquad   =                     0
 HvD: gridtype   = user      
 HvD: leb        =  T
 HvD: radgrid    = murakn    
 HvD: trunc_neigh=  T
 HvD: lssw       =  T
 HvD: whichssw   = erf1    
 HvD: mxnrad     =                     0
 HvD: mxnang     =                     0
 HVD: wfn1: movecs_in  = atomic                                                                                                                                                                                                                                                          
 HVD: wfn1: movecs_out = ./wfn1_dat.movecs                                                                                                                                                                                                                                               

      Superposition of Atomic Density Guess
      -------------------------------------

 Sum of atomic energies:          -0.99646508

      Non-variational initial energy
      ------------------------------

 Total energy =      -0.729086
 1-e energy   =      -1.705577
 2-e energy   =       0.617900
 HOMO         =      -0.343464
 LUMO         =      -0.021765

 iteration              energy           error
 ---------              ------           -----
         0         -0.99895749        0.200000
         1         -1.00051413        0.200000
         2         -1.00061531        0.200000
         3         -1.00250651        0.200000
         4         -1.00281021        0.200000
         5         -1.00390165        0.200000
         6         -1.00495299        0.200000
         7         -1.00505473        0.200000
         8         -1.00580725        0.185175
         9         -1.00595331        0.171449
        10         -1.00625883        0.171449
        11         -1.00666595        0.171449
        12         -1.00687615        0.146973
        13         -1.00693821        0.125992
        14         -1.00698334        0.125992
        15         -1.00721273        0.116653
        16         -1.00725911        0.116653
        17         -1.00735329        0.116653
        18         -1.00743467        0.116653
        19         -1.00756519        0.108006
        20         -1.00762901        0.100000
        21         -1.00776586        0.100000
        22         -1.00788276        0.092587
        23         -1.00809864        0.092587
        24         -1.00813967        0.092587
        25         -1.00831279        0.092587
        26         -1.00834158        0.085724
        27         -1.00838361        0.062996
        28         -1.00840168        0.058326
        29         -1.00846405        0.058326
        30         -1.00852966        0.058326
        31         -1.00857715        0.054003
        32         -1.00859787        0.054003
        33         -1.00862561        0.050000
        34         -1.00867860        0.050000
        35         -1.00873577        0.050000
        36         -1.00878277        0.050000
        37         -1.00885437        0.050000
        38         -1.00886919        0.046294
        39         -1.00887748        0.046294
        40         -1.00890035        0.046294
        41         -1.00893498        0.046294
        42         -1.00901000        0.039685
        43         -1.00903563        0.039685
        44         -1.00908165        0.039685
        45         -1.00919708        0.039685
        46         -1.00921514        0.023147
        47         -1.00921971        0.023147
        48         -1.00925966        0.023147
        49         -1.00925989        0.008505
        50         -1.00927257        0.008505
        51         -1.00928339        0.008505
        52         -1.00929770        0.007291
        53         -1.00931934        0.006250
        54         -1.00932494        0.006250
        55         -1.00934692        0.006250
        56         -1.00936878        0.005358
        57         -1.00938795        0.005358
        58         -1.00938911        0.004252
        59         -1.00938977        0.004252
        60         -1.00939675        0.004252
        61         -1.00939799        0.001563
        62         -1.00940822        0.001447
        63         -1.00941801        0.001447
        64         -1.00943746        0.001447
        65         -1.00944511        0.001339
        66         -1.00944575        0.000456
        67         -1.00945027        0.000362
        68         -1.00945268        0.000310
        69         -1.00945628        0.000287
        70         -1.00945951        0.000246
        71         -1.00946292        0.000246
        72         -1.00946719        0.000167
        73         -1.00947308        0.000133
        74         -1.00947390        0.000105
        75         -1.00947474        0.000066
        76         -1.00947537        0.000062
        77         -1.00947628        0.000053
        78         -1.00947659        0.000045
        79         -1.00947671        0.000036
        80         -1.00947800        0.000031
        81         -1.00947966        0.000031
        82         -1.00948051        0.000021
        83         -1.00948125        0.000021
        84         -1.00948255        0.000013
        85         -1.00948271        0.000012
        86         -1.00948358        0.000010
        87         -1.00948535        0.000009
        88         -1.00948577        0.000008
        89         -1.00948618        0.000004
        90         -1.00948689        0.000003
        91         -1.00948704        0.000001
        92         -1.00948725        0.000001
        93         -1.00948752        0.000001

 Reached Convergence

 WFN1                     :
 --------------------------
 Total WFN1 energy  =          -1.0094875226
 1-Electron energy  =          -1.8309235418
 2-Electron energy  =           0.4813363095
 Correlation energy =          -0.0184913431
 DFT XC energy      =           0.0000000000
 Entropy energy     =           0.0000000000
 Nuclear energy     =           0.3585910527

 conventional Hartree-Fock:
 --------------------------
 Total SCF energy  =          -0.9981977807
 2-Electron energy =           0.4926260514

                WFN1 Final Natural orbital energies and occupations
                ---------------------------------------------------

              Alpha       Beta            Alpha       Beta  
            --------    --------        --------    --------
       1      0.0000      0.0000          0.9818      0.9818
       2      0.0000      0.0000          0.0160      0.0160
       3      0.0000      0.0000          0.0009      0.0009
       4      0.0000      0.0000          0.0007      0.0007
       5      0.0000      0.0000          0.0002      0.0002
       6      0.0000      0.0000          0.0001      0.0001
       7      0.0000      0.0000          0.0000      0.0000
       8      0.0000      0.0000          0.0000      0.0000
       9      0.0000      0.0000          0.0001      0.0001
      10      0.0000      0.0000          0.0002      0.0002

             WFN1 Final Correlation function energies and occupations
             --------------------------------------------------------

              Alpha       Beta            Alpha       Beta  
            --------    --------        --------    --------
       1      0.0000      0.0000          1.0000      1.0000
       2      0.0000      0.0000          0.0000      0.0000
       3      0.0000      0.0000          0.0000      0.0000
       4      0.0000      0.0000          0.0000      0.0000
       5      0.0000      0.0000          0.0000      0.0000
       6      0.0000      0.0000          0.0000      0.0000
       7      0.0000      0.0000          0.0000      0.0000
       8      0.0000      0.0000          0.0000      0.0000
       9      0.0000      0.0000          0.0000      0.0000
      10      0.0000      0.0000          0.0000      0.0000

                WFN1 Final alpha-alpha 2-matrix occupation numbers
                --------------------------------------------------


 global array: g_momo1[1:10,1:10],  handle: -990 

            1           2           3           4           5           6  
       ----------- ----------- ----------- ----------- ----------- -----------
   1       0.00000     0.00000     0.00000     0.00000     0.00000    -0.00000
   2       0.00000     0.00000     0.00000    -0.00000     0.00000    -0.00000
   3       0.00000     0.00000     0.00000     0.00000     0.00000    -0.00000
   4       0.00000     0.00000     0.00000     0.00000     0.00000    -0.00000
   5       0.00000     0.00000     0.00000     0.00000     0.00000    -0.00000
   6       0.00000    -0.00000     0.00000    -0.00000     0.00000    -0.00000
   7       0.00000     0.00000    -0.00000    -0.00000     0.00000    -0.00000
   8       0.00000     0.00000     0.00000     0.00000     0.00000     0.00000
   9       0.00000     0.00000     0.00000     0.00000     0.00000     0.00000
  10       0.00000     0.00000     0.00000     0.00000     0.00000     0.00000

            7           8           9          10  
       ----------- ----------- ----------- -----------
   1       0.00000    -0.00000     0.00000     0.00000
   2       0.00000    -0.00000     0.00000     0.00000
   3       0.00000     0.00000     0.00000     0.00000
   4       0.00000     0.00000     0.00000    -0.00000
   5       0.00000     0.00000     0.00000     0.00000
   6       0.00000     0.00000     0.00000     0.00000
   7       0.00000     0.00000     0.00000     0.00000
   8       0.00000    -0.00000     0.00000     0.00000
   9       0.00000    -0.00000     0.00000     0.00000
  10       0.00000     0.00000     0.00000     0.00000

                 WFN1 Final beta-beta 2-matrix occupation numbers
                 ------------------------------------------------


 global array: g_momo2[1:10,1:10],  handle: -989 

            1           2           3           4           5           6  
       ----------- ----------- ----------- ----------- ----------- -----------
   1       0.00000     0.00000     0.00000     0.00000     0.00000    -0.00000
   2       0.00000     0.00000     0.00000    -0.00000     0.00000    -0.00000
   3       0.00000     0.00000     0.00000     0.00000     0.00000    -0.00000
   4       0.00000     0.00000     0.00000     0.00000     0.00000    -0.00000
   5       0.00000     0.00000     0.00000     0.00000     0.00000    -0.00000
   6       0.00000    -0.00000     0.00000    -0.00000     0.00000    -0.00000
   7       0.00000     0.00000    -0.00000    -0.00000     0.00000    -0.00000
   8       0.00000     0.00000     0.00000     0.00000     0.00000     0.00000
   9       0.00000     0.00000     0.00000     0.00000     0.00000     0.00000
  10       0.00000     0.00000     0.00000     0.00000     0.00000     0.00000

            7           8           9          10  
       ----------- ----------- ----------- -----------
   1       0.00000    -0.00000     0.00000     0.00000
   2       0.00000    -0.00000     0.00000     0.00000
   3       0.00000     0.00000     0.00000     0.00000
   4       0.00000     0.00000     0.00000    -0.00000
   5       0.00000     0.00000     0.00000     0.00000
   6       0.00000     0.00000     0.00000     0.00000
   7       0.00000     0.00000     0.00000     0.00000
   8       0.00000    -0.00000     0.00000     0.00000
   9       0.00000    -0.00000     0.00000     0.00000
  10       0.00000     0.00000     0.00000     0.00000

                  WFN1 Final alpha Correlation Function Analysis
                  ----------------------------------------------


 global array: Ca[1:10,1:10],  handle: -977 

                     1                       2                       3                       4                       5                       6  
       ----------------------- ----------------------- ----------------------- ----------------------- ----------------------- -----------------------
   1       0.32689,   -0.93541    -0.02040,    0.12417    -0.01481,    0.00227    -0.01595,   -0.03295     0.00629,   -0.00434    -0.01780,   -0.00059
   2      -0.00898,    0.12620     0.09655,    0.98604     0.00364,    0.01592    -0.00668,    0.00344    -0.02421,   -0.00046    -0.02492,   -0.00602
   3       0.01758,    0.02388     0.01272,   -0.00709    -0.74377,    0.12837    -0.64108,    0.11245     0.01894,   -0.02208     0.01014,   -0.02713
   4       0.00963,    0.02388    -0.00227,   -0.01540     0.47997,    0.43714    -0.55828,   -0.51035     0.00321,   -0.01645    -0.02912,   -0.00370
   5      -0.00233,   -0.01388    -0.00563,   -0.00830    -0.00127,    0.01237    -0.02133,   -0.00621    -0.65652,    0.61355     0.30972,   -0.30763
   6       0.01105,   -0.00236    -0.03155,    0.01993    -0.00004,    0.07315    -0.01760,   -0.01282     0.08231,    0.25474     0.20070,    0.51600
   7      -0.00000,    0.00000     0.00859,    0.00264     0.00943,    0.00816     0.03032,   -0.00291     0.20742,   -0.16567     0.45273,   -0.34605
   8       0.00000,    0.00000    -0.01486,   -0.00106    -0.04132,   -0.00450    -0.00896,   -0.01900     0.06945,    0.12720     0.14623,    0.23859
   9       0.00170,    0.01081    -0.00852,    0.00188     0.01108,    0.00428     0.01560,   -0.00001    -0.10837,    0.12308    -0.19023,    0.24621
  10       0.00429,   -0.01206    -0.01333,    0.00810     0.02787,   -0.00810    -0.01317,   -0.00888    -0.02632,    0.00537    -0.00393,    0.01920

                     7                       8                       9                      10  
       ----------------------- ----------------------- ----------------------- -----------------------
   1      -0.01210,   -0.00104    -0.00524,    0.00446     0.00205,   -0.00386    -0.01075,    0.00741
   2      -0.01518,   -0.00458     0.00441,    0.00848    -0.01454,    0.00891    -0.00008,    0.01404
   3       0.02251,    0.00503    -0.04470,    0.01653    -0.00921,   -0.02420     0.02070,   -0.00390
   4      -0.03830,   -0.03096    -0.00726,    0.02071    -0.02358,   -0.00078    -0.02901,   -0.00662
   5      -0.00527,   -0.01375     0.00538,   -0.01318    -0.00554,   -0.00583    -0.00433,    0.02264
   6       0.23977,    0.59032    -0.05570,   -0.30717     0.09969,    0.31495     0.00530,    0.04327
   7      -0.48184,    0.41220    -0.25332,    0.24248    -0.18789,    0.20501     0.03375,   -0.01128
   8      -0.12643,   -0.29020     0.35828,    0.54071     0.33455,    0.51442    -0.00391,    0.02832
   9      -0.18627,    0.22906    -0.41684,    0.42096     0.47567,   -0.44934     0.07919,   -0.05608
  10       0.01684,   -0.02709     0.05834,   -0.03727    -0.06250,    0.05749     0.86003,   -0.49469

                   WFN1 Final beta Correlation Function Analysis
                   ---------------------------------------------


 global array: Cb[1:10,1:10],  handle: -976 

                     1                       2                       3                       4                       5                       6  
       ----------------------- ----------------------- ----------------------- ----------------------- ----------------------- -----------------------
   1       0.32689,   -0.93541    -0.02040,    0.12417    -0.01481,    0.00227    -0.01595,   -0.03295     0.00629,   -0.00434    -0.01780,   -0.00059
   2      -0.00898,    0.12620     0.09655,    0.98604     0.00364,    0.01592    -0.00668,    0.00344    -0.02421,   -0.00046    -0.02492,   -0.00602
   3       0.01758,    0.02388     0.01272,   -0.00709    -0.74377,    0.12837    -0.64108,    0.11245     0.01894,   -0.02208     0.01014,   -0.02713
   4       0.00963,    0.02388    -0.00227,   -0.01540     0.47997,    0.43714    -0.55828,   -0.51035     0.00321,   -0.01645    -0.02912,   -0.00370
   5      -0.00233,   -0.01388    -0.00563,   -0.00830    -0.00127,    0.01237    -0.02133,   -0.00621    -0.65652,    0.61355     0.30972,   -0.30763
   6       0.01105,   -0.00236    -0.03155,    0.01993    -0.00004,    0.07315    -0.01760,   -0.01282     0.08231,    0.25474     0.20070,    0.51600
   7      -0.00000,    0.00000     0.00859,    0.00264     0.00943,    0.00816     0.03032,   -0.00291     0.20742,   -0.16567     0.45273,   -0.34605
   8       0.00000,    0.00000    -0.01486,   -0.00106    -0.04132,   -0.00450    -0.00896,   -0.01900     0.06945,    0.12720     0.14623,    0.23859
   9       0.00170,    0.01081    -0.00852,    0.00188     0.01108,    0.00428     0.01560,   -0.00001    -0.10837,    0.12308    -0.19023,    0.24621
  10       0.00429,   -0.01206    -0.01333,    0.00810     0.02787,   -0.00810    -0.01317,   -0.00888    -0.02632,    0.00537    -0.00393,    0.01920

                     7                       8                       9                      10  
       ----------------------- ----------------------- ----------------------- -----------------------
   1      -0.01210,   -0.00104    -0.00524,    0.00446     0.00205,   -0.00386    -0.01075,    0.00741
   2      -0.01518,   -0.00458     0.00441,    0.00848    -0.01454,    0.00891    -0.00008,    0.01404
   3       0.02251,    0.00503    -0.04470,    0.01653    -0.00921,   -0.02420     0.02070,   -0.00390
   4      -0.03830,   -0.03096    -0.00726,    0.02071    -0.02358,   -0.00078    -0.02901,   -0.00662
   5      -0.00527,   -0.01375     0.00538,   -0.01318    -0.00554,   -0.00583    -0.00433,    0.02264
   6       0.23977,    0.59032    -0.05570,   -0.30717     0.09969,    0.31495     0.00530,    0.04327
   7      -0.48184,    0.41220    -0.25332,    0.24248    -0.18789,    0.20501     0.03375,   -0.01128
   8      -0.12643,   -0.29020     0.35828,    0.54071     0.33455,    0.51442    -0.00391,    0.02832
   9      -0.18627,    0.22906    -0.41684,    0.42096     0.47567,   -0.44934     0.07919,   -0.05608
  10       0.01684,   -0.02709     0.05834,   -0.03727    -0.06250,    0.05749     0.86003,   -0.49469

                     WFN1 Final Alpha Natural Orbital Analysis
                     -----------------------------------------

 Vector    1  Occ=9.818416D-01  E= 0.000000D+00
              MO Center=  3.2D-04, -5.9D-04, -7.9D-03, r^2= 1.3D+00
   Bfn.  Coefficient  Atom+Function         Bfn.  Coefficient  Atom+Function  
  ----- ------------  ---------------      ----- ------------  ---------------
     2      0.416155  1 H  s                  7      0.410981  2 H  s          
     1      0.239590  1 H  s                  6      0.235109  2 H  s          

 Vector    2  Occ=1.600675D-02  E= 0.000000D+00
              MO Center= -1.2D-03,  7.9D-03,  3.0D-02, r^2= 1.8D+00
   Bfn.  Coefficient  Atom+Function         Bfn.  Coefficient  Atom+Function  
  ----- ------------  ---------------      ----- ------------  ---------------
     7      0.730347  2 H  s                  2     -0.717829  1 H  s          
     1     -0.292820  1 H  s                  6      0.288375  2 H  s          
     9      0.026083  2 H  py         

 Vector    3  Occ=8.791033D-04  E= 0.000000D+00
              MO Center=  3.0D-04,  2.1D-03, -4.7D-02, r^2= 2.1D+00
   Bfn.  Coefficient  Atom+Function         Bfn.  Coefficient  Atom+Function  
  ----- ------------  ---------------      ----- ------------  ---------------
     2     -1.149895  1 H  s                  7      1.111779  2 H  s          
     1      0.925562  1 H  s                  6     -0.870634  2 H  s          

 Vector    4  Occ=6.631632D-04  E= 0.000000D+00
              MO Center= -3.9D-03, -1.6D-03,  4.0D-02, r^2= 1.7D+00
   Bfn.  Coefficient  Atom+Function         Bfn.  Coefficient  Atom+Function  
  ----- ------------  ---------------      ----- ------------  ---------------
     6      0.957350  2 H  s                  1      0.906419  1 H  s          
     7     -0.710894  2 H  s                  2     -0.666310  1 H  s          
    10     -0.065121  2 H  pz                 8     -0.039107  2 H  px         
     5      0.029268  1 H  pz         

 Vector    5  Occ=1.981390D-04  E= 0.000000D+00
              MO Center= -2.0D-03, -1.2D-03,  2.5D-03, r^2= 9.1D-01
   Bfn.  Coefficient  Atom+Function         Bfn.  Coefficient  Atom+Function  
  ----- ------------  ---------------      ----- ------------  ---------------
    10      0.686446  2 H  pz                 5     -0.660727  1 H  pz         
     6      0.077274  2 H  s                  2      0.076129  1 H  s          
     1      0.043270  1 H  s                  3     -0.034808  1 H  px         

 Vector    6  Occ=1.276829D-04  E= 0.000000D+00
              MO Center=  5.5D-03,  3.2D-03,  1.1D-02, r^2= 8.6D-01
   Bfn.  Coefficient  Atom+Function         Bfn.  Coefficient  Atom+Function  
  ----- ------------  ---------------      ----- ------------  ---------------
     8      0.614157  2 H  px                 3      0.592794  1 H  px         
     4      0.365814  1 H  py                 9      0.346009  2 H  py         
    10      0.053009  2 H  pz                 1      0.041461  1 H  s          
     2     -0.032713  1 H  s          

 Vector    7  Occ=2.575694D-17  E= 0.000000D+00
              MO Center=  2.2D-04,  2.3D-04, -4.0D-03, r^2= 8.6D-01
   Bfn.  Coefficient  Atom+Function         Bfn.  Coefficient  Atom+Function  
  ----- ------------  ---------------      ----- ------------  ---------------
     4      0.612292  1 H  py                 9      0.596776  2 H  py         
     8     -0.365737  2 H  px                 3     -0.347075  1 H  px         

 Vector    8  Occ=7.482275D-17  E= 0.000000D+00
              MO Center=  3.9D-04, -9.5D-06, -3.1D-02, r^2= 8.7D-01
   Bfn.  Coefficient  Atom+Function         Bfn.  Coefficient  Atom+Function  
  ----- ------------  ---------------      ----- ------------  ---------------
     3      0.725511  1 H  px                 8     -0.696532  2 H  px         
     4     -0.028284  1 H  py         

 Vector    9  Occ=1.196526D-04  E= 0.000000D+00
              MO Center= -3.7D-04, -1.0D-02,  2.4D-02, r^2= 8.7D-01
   Bfn.  Coefficient  Atom+Function         Bfn.  Coefficient  Atom+Function  
  ----- ------------  ---------------      ----- ------------  ---------------
     9     -0.722502  2 H  py                 4      0.700086  1 H  py         
     8     -0.030227  2 H  px                 1     -0.026466  1 H  s          

 Vector   10  Occ=1.639056D-04  E= 0.000000D+00
              MO Center=  8.3D-04, -1.0D-04, -1.6D-02, r^2= 9.3D-01
   Bfn.  Coefficient  Atom+Function         Bfn.  Coefficient  Atom+Function  
  ----- ------------  ---------------      ----- ------------  ---------------
     5     -0.778902  1 H  pz                10     -0.752839  2 H  pz         
     7      0.297946  2 H  s                  2     -0.267290  1 H  s          
     6     -0.093744  2 H  s                  1      0.055092  1 H  s          
     8      0.032206  2 H  px         


                     WFN1 Final Beta Natural Orbital Analysis
                     ----------------------------------------

 Vector    1  Occ=9.818416D-01  E= 0.000000D+00
              MO Center=  3.2D-04, -5.9D-04, -7.9D-03, r^2= 1.3D+00
   Bfn.  Coefficient  Atom+Function         Bfn.  Coefficient  Atom+Function  
  ----- ------------  ---------------      ----- ------------  ---------------
     2      0.416155  1 H  s                  7      0.410981  2 H  s          
     1      0.239590  1 H  s                  6      0.235109  2 H  s          

 Vector    2  Occ=1.600675D-02  E= 0.000000D+00
              MO Center= -1.2D-03,  7.9D-03,  3.0D-02, r^2= 1.8D+00
   Bfn.  Coefficient  Atom+Function         Bfn.  Coefficient  Atom+Function  
  ----- ------------  ---------------      ----- ------------  ---------------
     7      0.730347  2 H  s                  2     -0.717829  1 H  s          
     1     -0.292820  1 H  s                  6      0.288375  2 H  s          
     9      0.026083  2 H  py         

 Vector    3  Occ=8.791033D-04  E= 0.000000D+00
              MO Center=  3.0D-04,  2.1D-03, -4.7D-02, r^2= 2.1D+00
   Bfn.  Coefficient  Atom+Function         Bfn.  Coefficient  Atom+Function  
  ----- ------------  ---------------      ----- ------------  ---------------
     2     -1.149895  1 H  s                  7      1.111779  2 H  s          
     1      0.925562  1 H  s                  6     -0.870634  2 H  s          

 Vector    4  Occ=6.631632D-04  E= 0.000000D+00
              MO Center= -3.9D-03, -1.6D-03,  4.0D-02, r^2= 1.7D+00
   Bfn.  Coefficient  Atom+Function         Bfn.  Coefficient  Atom+Function  
  ----- ------------  ---------------      ----- ------------  ---------------
     6      0.957350  2 H  s                  1      0.906419  1 H  s          
     7     -0.710894  2 H  s                  2     -0.666310  1 H  s          
    10     -0.065121  2 H  pz                 8     -0.039107  2 H  px         
     5      0.029268  1 H  pz         

 Vector    5  Occ=1.981390D-04  E= 0.000000D+00
              MO Center= -2.0D-03, -1.2D-03,  2.5D-03, r^2= 9.1D-01
   Bfn.  Coefficient  Atom+Function         Bfn.  Coefficient  Atom+Function  
  ----- ------------  ---------------      ----- ------------  ---------------
    10      0.686446  2 H  pz                 5     -0.660727  1 H  pz         
     6      0.077274  2 H  s                  2      0.076129  1 H  s          
     1      0.043270  1 H  s                  3     -0.034808  1 H  px         

 Vector    6  Occ=1.276829D-04  E= 0.000000D+00
              MO Center=  5.5D-03,  3.2D-03,  1.1D-02, r^2= 8.6D-01
   Bfn.  Coefficient  Atom+Function         Bfn.  Coefficient  Atom+Function  
  ----- ------------  ---------------      ----- ------------  ---------------
     8      0.614157  2 H  px                 3      0.592794  1 H  px         
     4      0.365814  1 H  py                 9      0.346009  2 H  py         
    10      0.053009  2 H  pz                 1      0.041461  1 H  s          
     2     -0.032713  1 H  s          

 Vector    7  Occ=2.575694D-17  E= 0.000000D+00
              MO Center=  2.2D-04,  2.3D-04, -4.0D-03, r^2= 8.6D-01
   Bfn.  Coefficient  Atom+Function         Bfn.  Coefficient  Atom+Function  
  ----- ------------  ---------------      ----- ------------  ---------------
     4      0.612292  1 H  py                 9      0.596776  2 H  py         
     8     -0.365737  2 H  px                 3     -0.347075  1 H  px         

 Vector    8  Occ=7.482275D-17  E= 0.000000D+00
              MO Center=  3.9D-04, -9.5D-06, -3.1D-02, r^2= 8.7D-01
   Bfn.  Coefficient  Atom+Function         Bfn.  Coefficient  Atom+Function  
  ----- ------------  ---------------      ----- ------------  ---------------
     3      0.725511  1 H  px                 8     -0.696532  2 H  px         
     4     -0.028284  1 H  py         

 Vector    9  Occ=1.196526D-04  E= 0.000000D+00
              MO Center= -3.7D-04, -1.0D-02,  2.4D-02, r^2= 8.7D-01
   Bfn.  Coefficient  Atom+Function         Bfn.  Coefficient  Atom+Function  
  ----- ------------  ---------------      ----- ------------  ---------------
     9     -0.722502  2 H  py                 4      0.700086  1 H  py         
     8     -0.030227  2 H  px                 1     -0.026466  1 H  s          

 Vector   10  Occ=1.639056D-04  E= 0.000000D+00
              MO Center=  8.3D-04, -1.0D-04, -1.6D-02, r^2= 9.3D-01
   Bfn.  Coefficient  Atom+Function         Bfn.  Coefficient  Atom+Function  
  ----- ------------  ---------------      ----- ------------  ---------------
     5     -0.778902  1 H  pz                10     -0.752839  2 H  pz         
     7      0.297946  2 H  s                  2     -0.267290  1 H  s          
     6     -0.093744  2 H  s                  1      0.055092  1 H  s          
     8      0.032206  2 H  px         


 Task  times  cpu:      200.5s     wall:      236.6s
 Summary of allocated global arrays
-----------------------------------
  No active global arrays



                         GA Statistics for process    0
                         ------------------------------

       create   destroy   get      put      acc     scatter   gather  read&inc
calls:   44       44     5.71e+07 2.61e+04 3.27e+04    0        0       11     
number of processes/call 1.00e+00 1.00e+00 1.00e+00 0.00e+00 0.00e+00
bytes total:             4.57e+10 2.62e+07 3.26e+07 0.00e+00 0.00e+00 8.80e+01
bytes remote:            0.00e+00 0.00e+00 0.00e+00 0.00e+00 0.00e+00 0.00e+00
Max memory consumed for GA by this process: 268000 bytes
MA_summarize_allocated_blocks: starting scan ...
MA_summarize_allocated_blocks: scan completed: 0 heap blocks, 0 stack blocks
MA usage statistics:

	allocation statistics:
					      heap	     stack
					      ----	     -----
	current number of blocks	         0	         0
	maximum number of blocks	        19	        17
	current total bytes		         0	         0
	maximum total bytes		   3205432	  22508664
	maximum total K-bytes		      3206	     22509
	maximum total M-bytes		         4	        23


                                NWChem Input Module
                                -------------------





                                     CITATION
                                     --------
                Please cite the following reference when publishing
                           results obtained with NWChem:

                 M. Valiev, E.J. Bylaska, N. Govind, K. Kowalski,
              T.P. Straatsma, H.J.J. van Dam, D. Wang, J. Nieplocha,
                        E. Apra, T.L. Windus, W.A. de Jong
                 "NWChem: a comprehensive and scalable open-source
                  solution for large scale molecular simulations"
                      Comput. Phys. Commun. 181, 1477 (2010)
                           doi:10.1016/j.cpc.2010.04.018

                                      AUTHORS
                                      -------
          E. Apra, E. J. Bylaska, W. A. de Jong, N. Govind, K. Kowalski,
       T. P. Straatsma, M. Valiev, H. J. J. van Dam, D. Wang, T. L. Windus,
        J. Hammond, J. Autschbach, K. Bhaskaran-Nair, J. Brabec, K. Lopata,
    S. A. Fischer, S. Krishnamoorthy, M. Jacquelin, W. Ma, M. Klemm, O. Villa,
      Y. Chen, V. Anisimov, F. Aquino, S. Hirata, M. T. Hackler, V. Konjkov,
      T. Risthaus, M. Malagoli, A. Marenich, A. Otero-de-la-Roza, J. Mullin,
        P. Nichols, R. Peverati, J. Pittner, Y. Zhao, P.-D. Fan, A. Fonari,
       M. Williamson, R. J. Harrison, J. R. Rehr, M. Dupuis, D. Silverstein,
    D. M. A. Smith, J. Nieplocha, V. Tipparaju, M. Krishnan, B. E. Van Kuiken,
        A. Vazquez-Mayagoitia, L. Jensen, M. Swart, Q. Wu, T. Van Voorhis,
     A. A. Auer, M. Nooijen, L. D. Crosby, E. Brown, G. Cisneros, G. I. Fann,
   H. Fruchtl, J. Garza, K. Hirao, R. A. Kendall, J. A. Nichols, K. Tsemekhman,
    K. Wolinski, J. Anchell, D. E. Bernholdt, P. Borowski, T. Clark, D. Clerc,
   H. Dachsel, M. J. O. Deegan, K. Dyall, D. Elwood, E. Glendening, M. Gutowski,
   A. C. Hess, J. Jaffe, B. G. Johnson, J. Ju, R. Kobayashi, R. Kutteh, Z. Lin,
   R. Littlefield, X. Long, B. Meng, T. Nakajima, S. Niu, L. Pollack, M. Rosing,
   K. Glaesemann, G. Sandrone, M. Stave, H. Taylor, G. Thomas, J. H. van Lenthe,
                               A. T. Wong, Z. Zhang.

 Total times  cpu:      200.5s     wall:      236.7s
