 argument  1 = input-wf.nw



============================== echo of input deck ==============================
echo
start wfn1_dat
geometry units au noautoz
  H 0 0 -.74434600000000000000
  H 0 0  .74434600000000000000
  symmetry cs
end
basis
  H library 6-31g**
end
set wfn1:input_vectors "atomic"
set wfn1:solver "monte-carlo"
set wfn1:print_error F
set wfn1:t_initial 0.1
#set wfn1:corr_expr "wfn1_mx"
set wfn1:corr_expr "wfn1c"
set wfn1:t_bath 0.0
set wfn1:maxit  20000
task wfn1 energy
================================================================================


                                         
                                         


              Northwest Computational Chemistry Package (NWChem) 6.8
              ------------------------------------------------------


                    Environmental Molecular Sciences Laboratory
                       Pacific Northwest National Laboratory
                                Richland, WA 99352

                              Copyright (c) 1994-2015
                       Pacific Northwest National Laboratory
                            Battelle Memorial Institute

             NWChem is an open-source computational chemistry package
                        distributed under the terms of the
                      Educational Community License (ECL) 2.0
             A copy of the license is included with this distribution
                              in the LICENSE.TXT file

                                  ACKNOWLEDGMENT
                                  --------------

            This software and its documentation were developed at the
            EMSL at Pacific Northwest National Laboratory, a multiprogram
            national laboratory, operated for the U.S. Department of Energy
            by Battelle under Contract Number DE-AC05-76RL01830. Support
            for this work was provided by the Department of Energy Office
            of Biological and Environmental Research, Office of Basic
            Energy Sciences, and the Office of Advanced Scientific Computing.


           Job information
           ---------------

    hostname        = erato
    program         = ../../../bin/LINUX64/nwchem
    date            = Mon Mar  1 10:03:06 2021

    compiled        = Sun_Feb_28_18:02:42_2021
    source          = /home/hvandam/nwchem-1-wfn1
    nwchem branch   = Development
    nwchem revision = nwchem_on_git-124-gad72d19fff205e319ffbbf2bca37a04ded6ad57b
    ga revision     = nwchem_on_git-124-gad72d19
    use scalapack   = F
    input           = input-wf.nw
    prefix          = wfn1_dat.
    data base       = ./wfn1_dat.db
    status          = startup
    nproc           =        1
    time left       =     -1s



           Memory information
           ------------------

    heap     =   13107198 doubles =    100.0 Mbytes
    stack    =   13107195 doubles =    100.0 Mbytes
    global   =   26214400 doubles =    200.0 Mbytes (distinct from heap & stack)
    total    =   52428793 doubles =    400.0 Mbytes
    verify   = yes
    hardfail = no 


           Directory information
           ---------------------

  0 permanent = .
  0 scratch   = .




                                NWChem Input Module
                                -------------------


 Turning off AUTOSYM since
 SYMMETRY directive was detected!



                             Geometry "geometry" -> ""
                             -------------------------

 Output coordinates in a.u. (scale by  1.000000000 to convert to a.u.)

  No.       Tag          Charge          X              Y              Z
 ---- ---------------- ---------- -------------- -------------- --------------
    1 H                    1.0000     0.00000000     0.00000000    -0.74434600
    2 H                    1.0000     0.00000000     0.00000000     0.74434600

      Atomic Mass 
      ----------- 

      H                  1.007825


 Effective nuclear repulsion energy (a.u.)       0.6717306199

            Nuclear Dipole moment (a.u.) 
            ----------------------------
        X                 Y               Z
 ---------------- ---------------- ----------------
     0.0000000000     0.0000000000     0.0000000000

      Symmetry information
      --------------------

 Group name             Cs        
 Group number              2
 Group order               2
 No. of unique centers     1

      Symmetry unique atoms

     1


            XYZ format geometry
            -------------------
     2
 geometry
 H                     0.00000000     0.00000000    -0.39389097
 H                     0.00000000     0.00000000     0.39389097

                      Basis "ao basis" -> "" (cartesian)
                      -----
  H (Hydrogen)
  ------------
            Exponent  Coefficients 
       -------------- ---------------------------------------------------------
  1 S  1.87311370E+01  0.033495
  1 S  2.82539370E+00  0.234727
  1 S  6.40121700E-01  0.813757

  2 S  1.61277800E-01  1.000000

  3 P  1.10000000E+00  1.000000



 Summary of "ao basis" -> "" (cartesian)
 ------------------------------------------------------------------------------
       Tag                 Description            Shells   Functions and Types
 ---------------- ------------------------------  ------  ---------------------
 H                          6-31g**                  3        5   2s1p



                                NWChem WFN1 Module
                                ------------------



          No. of electrons :     2
           Alpha electrons :     1
            Beta electrons :     1
          Charge           :     0
          Spin multiplicity:     1

 HvD: wfn1_inpdft
 HvD: nquad_task =                     1
 HvD: iangquad   =                     0
 HvD: gridtype   = user      
 HvD: leb        =  T
 HvD: radgrid    = murakn    
 HvD: trunc_neigh=  T
 HvD: lssw       =  T
 HvD: whichssw   = erf1    
 HvD: mxnrad     =                     0
 HvD: mxnang     =                     0
 HVD: wfn1: movecs_in  = atomic                                                                                                                                                                                                                                                          
 HVD: wfn1: movecs_out = ./wfn1_dat.movecs                                                                                                                                                                                                                                               

      Superposition of Atomic Density Guess
      -------------------------------------

 Sum of atomic energies:          -0.99646508

      Non-variational initial energy
      ------------------------------

 Total energy =      -0.842543
 1-e energy   =      -2.172643
 2-e energy   =       0.658369
 HOMO         =      -0.560037
 LUMO         =       0.161815

 iteration              energy           error
 ---------              ------           -----
         0         -1.12851956        0.200000
         1         -1.12863173        0.200000
         2         -1.12878959        0.200000
         3         -1.12882830        0.200000
         4         -1.12899307        0.200000
         5         -1.12908603        0.200000
         6         -1.12910466        0.200000
         7         -1.12920310        0.185175
         8         -1.12930321        0.158740
         9         -1.12949661        0.146973
        10         -1.12962880        0.108006
        11         -1.12977162        0.092587
        12         -1.13001913        0.085724
        13         -1.13003196        0.068040
        14         -1.13006344        0.058326
        15         -1.13009860        0.058326
        16         -1.13011886        0.058326
        17         -1.13026627        0.058326
        18         -1.13027264        0.058326
        19         -1.13034922        0.058326
        20         -1.13042120        0.058326
        21         -1.13046343        0.050000
        22         -1.13060126        0.050000
        23         -1.13063320        0.050000
        24         -1.13069061        0.046294
        25         -1.13075716        0.046294
        26         -1.13079062        0.046294
        27         -1.13079063        0.042862
        28         -1.13079241        0.027001
        29         -1.13079540        0.027001
        30         -1.13082909        0.027001
        31         -1.13082960        0.027001
        32         -1.13083104        0.027001
        33         -1.13083637        0.027001
        34         -1.13084873        0.027001
        35         -1.13085938        0.027001
        36         -1.13087384        0.025000
        37         -1.13087492        0.025000
        38         -1.13087761        0.021431
        39         -1.13088892        0.021431
        40         -1.13090227        0.021431
        41         -1.13092622        0.018372
        42         -1.13092870        0.012500
        43         -1.13093403        0.012500
        44         -1.13093435        0.012500
        45         -1.13095804        0.012500
        46         -1.13096382        0.011573
        47         -1.13096484        0.008505
        48         -1.13096945        0.004961
        49         -1.13097053        0.003937
        50         -1.13097057        0.001688
        51         -1.13097124        0.001063
        52         -1.13097388        0.000911
        53         -1.13097548        0.000911
        54         -1.13097613        0.000911
        55         -1.13097620        0.000844
        56         -1.13097813        0.000362
        57         -1.13097879        0.000310
        58         -1.13097883        0.000310
        59         -1.13097898        0.000144
        60         -1.13097907        0.000144
        61         -1.13097969        0.000090
        62         -1.13097993        0.000078
        63         -1.13098015        0.000028
        64         -1.13098015        0.000013
        65         -1.13098016        0.000012
        66         -1.13098036        0.000009
        67         -1.13098039        0.000005
        68         -1.13098042        0.000005
        69         -1.13098049        0.000004
        70         -1.13098052        0.000002
        71         -1.13098052        0.000002
        72         -1.13098056        0.000002
        73         -1.13098073        0.000001
        74         -1.13098074        0.000001
        75         -1.13098075        0.000000

 Reached Convergence

 WFN1                     :
 --------------------------
 Total WFN1 energy  =          -1.1309807497
 1-Electron energy  =          -2.4385372485
 2-Electron energy  =           0.6404144555
 Correlation energy =          -0.0045885766
 DFT XC energy      =           0.0000000000
 Entropy energy     =           0.0000000000
 Nuclear energy     =           0.6717306199

 conventional Hartree-Fock:
 --------------------------
 Total SCF energy  =          -1.1296753428
 2-Electron energy =           0.6417198623

                WFN1 Final Natural orbital energies and occupations
                ---------------------------------------------------

              Alpha       Beta            Alpha       Beta  
            --------    --------        --------    --------
       1      0.0000      0.0000          0.9984      0.9984
       2      0.0000      0.0000          0.0011      0.0011
       3      0.0000      0.0000          0.0001      0.0001
       4      0.0000      0.0000          0.0002      0.0002
       5      0.0000      0.0000          0.0000      0.0000
       6      0.0000      0.0000          0.0002      0.0002
       7      0.0000      0.0000          0.0000      0.0000
       8      0.0000      0.0000          0.0000      0.0000
       9      0.0000      0.0000          0.0001      0.0001
      10      0.0000      0.0000          0.0000      0.0000

             WFN1 Final Correlation function energies and occupations
             --------------------------------------------------------

              Alpha       Beta            Alpha       Beta  
            --------    --------        --------    --------
       1      0.0000      0.0000          1.0000      1.0000
       2      0.0000      0.0000          0.0000      0.0000
       3      0.0000      0.0000          0.0000      0.0000
       4      0.0000      0.0000          0.0000      0.0000
       5      0.0000      0.0000          0.0000      0.0000
       6      0.0000      0.0000          0.0000      0.0000
       7      0.0000      0.0000          0.0000      0.0000
       8      0.0000      0.0000          0.0000      0.0000
       9      0.0000      0.0000          0.0000      0.0000
      10      0.0000      0.0000          0.0000      0.0000

                WFN1 Final alpha-alpha 2-matrix occupation numbers
                --------------------------------------------------


 global array: g_momo1[1:10,1:10],  handle: -990 

            1           2           3           4           5           6  
       ----------- ----------- ----------- ----------- ----------- -----------
   1       0.00000     0.00000     0.00000    -0.00000     0.00000     0.00000
   2      -0.00000     0.00000    -0.00000     0.00000     0.00000     0.00000
   3       0.00000     0.00000     0.00000     0.00000     0.00000     0.00000
   4       0.00000     0.00000    -0.00000    -0.00000     0.00000     0.00000
   5       0.00000     0.00000     0.00000     0.00000     0.00000     0.00000
   6       0.00000     0.00000     0.00000     0.00000     0.00000     0.00000
   7       0.00000     0.00000     0.00000     0.00000     0.00000     0.00000
   8       0.00000     0.00000     0.00000     0.00000     0.00000     0.00000
   9       0.00000     0.00000     0.00000    -0.00000     0.00000     0.00000
  10      -0.00000     0.00000     0.00000     0.00000     0.00000     0.00000

            7           8           9          10  
       ----------- ----------- ----------- -----------
   1       0.00000     0.00000     0.00000     0.00000
   2       0.00000    -0.00000     0.00000     0.00000
   3       0.00000     0.00000     0.00000     0.00000
   4       0.00000     0.00000    -0.00000     0.00000
   5       0.00000     0.00000    -0.00000     0.00000
   6      -0.00000     0.00000    -0.00000     0.00000
   7       0.00000     0.00000     0.00000     0.00000
   8       0.00000     0.00000    -0.00000     0.00000
   9       0.00000     0.00000     0.00000     0.00000
  10       0.00000     0.00000     0.00000     0.00000

                 WFN1 Final beta-beta 2-matrix occupation numbers
                 ------------------------------------------------


 global array: g_momo2[1:10,1:10],  handle: -989 

            1           2           3           4           5           6  
       ----------- ----------- ----------- ----------- ----------- -----------
   1       0.00000     0.00000     0.00000    -0.00000     0.00000     0.00000
   2      -0.00000     0.00000    -0.00000     0.00000     0.00000     0.00000
   3       0.00000     0.00000     0.00000     0.00000     0.00000     0.00000
   4       0.00000     0.00000    -0.00000    -0.00000     0.00000     0.00000
   5       0.00000     0.00000     0.00000     0.00000     0.00000     0.00000
   6       0.00000     0.00000     0.00000     0.00000     0.00000     0.00000
   7       0.00000     0.00000     0.00000     0.00000     0.00000     0.00000
   8       0.00000     0.00000     0.00000     0.00000     0.00000     0.00000
   9       0.00000     0.00000     0.00000    -0.00000     0.00000     0.00000
  10      -0.00000     0.00000     0.00000     0.00000     0.00000     0.00000

            7           8           9          10  
       ----------- ----------- ----------- -----------
   1       0.00000     0.00000     0.00000     0.00000
   2       0.00000    -0.00000     0.00000     0.00000
   3       0.00000     0.00000     0.00000     0.00000
   4       0.00000     0.00000    -0.00000     0.00000
   5       0.00000     0.00000    -0.00000     0.00000
   6      -0.00000     0.00000    -0.00000     0.00000
   7       0.00000     0.00000     0.00000     0.00000
   8       0.00000     0.00000    -0.00000     0.00000
   9       0.00000     0.00000     0.00000     0.00000
  10       0.00000     0.00000     0.00000     0.00000

                  WFN1 Final alpha Correlation Function Analysis
                  ----------------------------------------------


 global array: Ca[1:10,1:10],  handle: -977 

                     1                       2                       3                       4                       5                       6  
       ----------------------- ----------------------- ----------------------- ----------------------- ----------------------- -----------------------
   1      -0.97299,    0.22744     0.03226,    0.00008    -0.00829,    0.00307     0.00566,   -0.01129    -0.00892,    0.00364     0.00810,   -0.00249
   2      -0.02598,   -0.01960    -0.65001,   -0.75540     0.03584,    0.05511     0.01508,   -0.02308     0.01769,    0.01253     0.00666,   -0.00066
   3       0.00767,    0.00229    -0.06272,    0.02481    -0.96927,    0.19365     0.11287,    0.00896     0.01390,    0.00429    -0.01065,    0.02653
   4      -0.00255,   -0.01213     0.01038,   -0.01997    -0.11245,   -0.01428    -0.90973,   -0.39391     0.03202,    0.01820     0.00660,    0.03067
   5       0.00000,    0.00000    -0.01853,    0.00136     0.01041,    0.02165    -0.02496,    0.03270    -0.62378,    0.32409    -0.62755,    0.32675
   6      -0.01124,    0.00492     0.01229,   -0.00632     0.02509,   -0.00107     0.01596,    0.00488     0.61172,   -0.35676    -0.60851,    0.35272
   7      -0.00123,   -0.00649    -0.00430,   -0.00343    -0.05945,    0.00867     0.00005,    0.00687     0.02228,    0.01071    -0.02442,   -0.02464
   8       0.00144,   -0.00237    -0.00645,    0.00631     0.00341,    0.02564    -0.01046,   -0.02492    -0.03346,    0.00148    -0.00832,   -0.01667
   9       0.00741,    0.00457     0.00083,    0.00935     0.01608,   -0.00299     0.02371,   -0.00144     0.01240,    0.01887     0.00206,    0.02910
  10       0.00275,    0.00293     0.00300,   -0.00333    -0.00366,    0.00257     0.01249,   -0.00418    -0.00297,   -0.00105     0.01666,    0.01086

                     7                       8                       9                      10  
       ----------------------- ----------------------- ----------------------- -----------------------
   1      -0.00308,    0.00306     0.00546,   -0.00331    -0.00721,    0.00068     0.00362,   -0.00161
   2      -0.00142,    0.00006     0.00965,    0.00438    -0.00345,    0.00667    -0.00338,    0.00379
   3      -0.03397,   -0.03315     0.02829,    0.03536    -0.00101,    0.01542    -0.00254,   -0.00334
   4       0.00913,   -0.00806     0.01412,    0.00148    -0.00258,   -0.02943     0.00222,    0.01215
   5      -0.00067,   -0.00693     0.01714,   -0.04609    -0.00012,    0.00376     0.01206,   -0.00590
   6      -0.04404,    0.01149    -0.00696,   -0.00495    -0.00875,    0.00875     0.01536,   -0.00630
   7       0.58841,    0.73101    -0.20962,   -0.26272    -0.00788,   -0.00819     0.00820,   -0.02637
   8      -0.23347,    0.08923    -0.62856,    0.23716    -0.65113,    0.24328    -0.00728,    0.00516
   9       0.20232,    0.10478     0.58096,    0.30430    -0.63492,   -0.33480     0.01246,    0.01586
  10       0.01890,   -0.01062    -0.02612,   -0.00414     0.01050,   -0.00116     0.79845,    0.60047

                   WFN1 Final beta Correlation Function Analysis
                   ---------------------------------------------


 global array: Cb[1:10,1:10],  handle: -976 

                     1                       2                       3                       4                       5                       6  
       ----------------------- ----------------------- ----------------------- ----------------------- ----------------------- -----------------------
   1      -0.97299,    0.22744     0.03226,    0.00008    -0.00829,    0.00307     0.00566,   -0.01129    -0.00892,    0.00364     0.00810,   -0.00249
   2      -0.02598,   -0.01960    -0.65001,   -0.75540     0.03584,    0.05511     0.01508,   -0.02308     0.01769,    0.01253     0.00666,   -0.00066
   3       0.00767,    0.00229    -0.06272,    0.02481    -0.96927,    0.19365     0.11287,    0.00896     0.01390,    0.00429    -0.01065,    0.02653
   4      -0.00255,   -0.01213     0.01038,   -0.01997    -0.11245,   -0.01428    -0.90973,   -0.39391     0.03202,    0.01820     0.00660,    0.03067
   5       0.00000,    0.00000    -0.01853,    0.00136     0.01041,    0.02165    -0.02496,    0.03270    -0.62378,    0.32409    -0.62755,    0.32675
   6      -0.01124,    0.00492     0.01229,   -0.00632     0.02509,   -0.00107     0.01596,    0.00488     0.61172,   -0.35676    -0.60851,    0.35272
   7      -0.00123,   -0.00649    -0.00430,   -0.00343    -0.05945,    0.00867     0.00005,    0.00687     0.02228,    0.01071    -0.02442,   -0.02464
   8       0.00144,   -0.00237    -0.00645,    0.00631     0.00341,    0.02564    -0.01046,   -0.02492    -0.03346,    0.00148    -0.00832,   -0.01667
   9       0.00741,    0.00457     0.00083,    0.00935     0.01608,   -0.00299     0.02371,   -0.00144     0.01240,    0.01887     0.00206,    0.02910
  10       0.00275,    0.00293     0.00300,   -0.00333    -0.00366,    0.00257     0.01249,   -0.00418    -0.00297,   -0.00105     0.01666,    0.01086

                     7                       8                       9                      10  
       ----------------------- ----------------------- ----------------------- -----------------------
   1      -0.00308,    0.00306     0.00546,   -0.00331    -0.00721,    0.00068     0.00362,   -0.00161
   2      -0.00142,    0.00006     0.00965,    0.00438    -0.00345,    0.00667    -0.00338,    0.00379
   3      -0.03397,   -0.03315     0.02829,    0.03536    -0.00101,    0.01542    -0.00254,   -0.00334
   4       0.00913,   -0.00806     0.01412,    0.00148    -0.00258,   -0.02943     0.00222,    0.01215
   5      -0.00067,   -0.00693     0.01714,   -0.04609    -0.00012,    0.00376     0.01206,   -0.00590
   6      -0.04404,    0.01149    -0.00696,   -0.00495    -0.00875,    0.00875     0.01536,   -0.00630
   7       0.58841,    0.73101    -0.20962,   -0.26272    -0.00788,   -0.00819     0.00820,   -0.02637
   8      -0.23347,    0.08923    -0.62856,    0.23716    -0.65113,    0.24328    -0.00728,    0.00516
   9       0.20232,    0.10478     0.58096,    0.30430    -0.63492,   -0.33480     0.01246,    0.01586
  10       0.01890,   -0.01062    -0.02612,   -0.00414     0.01050,   -0.00116     0.79845,    0.60047

                     WFN1 Final Alpha Natural Orbital Analysis
                     -----------------------------------------

 Vector    1  Occ=9.984294D-01  E= 0.000000D+00
              MO Center=  1.0D-04, -7.4D-04, -9.2D-04, r^2= 7.6D-01
   Bfn.  Coefficient  Atom+Function         Bfn.  Coefficient  Atom+Function  
  ----- ------------  ---------------      ----- ------------  ---------------
     1     -0.313169  1 H  s                  6     -0.311777  2 H  s          
     2     -0.286534  1 H  s                  7     -0.284163  2 H  s          

 Vector    2  Occ=1.059167D-03  E= 0.000000D+00
              MO Center= -2.9D-03,  4.3D-03,  3.4D-02, r^2= 1.9D+00
   Bfn.  Coefficient  Atom+Function         Bfn.  Coefficient  Atom+Function  
  ----- ------------  ---------------      ----- ------------  ---------------
     7     -1.574482  2 H  s                  2      1.528059  1 H  s          
     1      0.206187  1 H  s                  6     -0.154484  2 H  s          

 Vector    3  Occ=6.400880D-05  E= 0.000000D+00
              MO Center= -1.7D-04,  6.3D-04, -3.0D-02, r^2= 1.6D+00
   Bfn.  Coefficient  Atom+Function         Bfn.  Coefficient  Atom+Function  
  ----- ------------  ---------------      ----- ------------  ---------------
     6     -0.761330  2 H  s                  1     -0.757522  1 H  s          
     2      0.722600  1 H  s                  7      0.632862  2 H  s          
     5     -0.056699  1 H  pz                10      0.036958  2 H  pz         

 Vector    4  Occ=1.537185D-04  E= 0.000000D+00
              MO Center=  2.1D-03,  2.8D-03, -1.7D-02, r^2= 1.3D+00
   Bfn.  Coefficient  Atom+Function         Bfn.  Coefficient  Atom+Function  
  ----- ------------  ---------------      ----- ------------  ---------------
     2     -1.424371  1 H  s                  7      1.412046  2 H  s          
     1      0.954553  1 H  s                  6     -0.934713  2 H  s          
     5     -0.199721  1 H  pz                10     -0.177500  2 H  pz         

 Vector    5  Occ=1.110491D-18  E= 0.000000D+00
              MO Center=  8.8D-05,  9.2D-05, -6.6D-03, r^2= 4.4D-01
   Bfn.  Coefficient  Atom+Function         Bfn.  Coefficient  Atom+Function  
  ----- ------------  ---------------      ----- ------------  ---------------
     4     -0.479486  1 H  py                 9     -0.471453  2 H  py         
     3     -0.405388  1 H  px                 8     -0.393658  2 H  px         
    10     -0.026159  2 H  pz         

 Vector    6  Occ=1.505176D-04  E= 0.000000D+00
              MO Center= -2.1D-05,  2.5D-04, -4.8D-03, r^2= 4.4D-01
   Bfn.  Coefficient  Atom+Function         Bfn.  Coefficient  Atom+Function  
  ----- ------------  ---------------      ----- ------------  ---------------
     8      0.479679  2 H  px                 3      0.470566  1 H  px         
     4     -0.413670  1 H  py                 9     -0.385018  2 H  py         
     7     -0.043262  2 H  s                  6      0.031701  2 H  s          
    10      0.030839  2 H  pz         

 Vector    7  Occ=4.361927D-05  E= 0.000000D+00
              MO Center=  3.7D-04,  4.2D-05, -2.7D-03, r^2= 5.7D-01
   Bfn.  Coefficient  Atom+Function         Bfn.  Coefficient  Atom+Function  
  ----- ------------  ---------------      ----- ------------  ---------------
     5     -0.654888  1 H  pz                10      0.609076  2 H  pz         
     6      0.416269  2 H  s                  1      0.342155  1 H  s          
     7     -0.199941  2 H  s                  2     -0.166021  1 H  s          

 Vector    8  Occ=7.673887D-06  E= 0.000000D+00
              MO Center= -1.3D-03, -8.2D-04,  3.7D-03, r^2= 5.4D-01
   Bfn.  Coefficient  Atom+Function         Bfn.  Coefficient  Atom+Function  
  ----- ------------  ---------------      ----- ------------  ---------------
     3     -0.721177  1 H  px                 8      0.716073  2 H  px         
     9      0.448011  2 H  py                 4     -0.429840  1 H  py         
     7      0.032439  2 H  s                 10     -0.026409  2 H  pz         
     5     -0.026232  1 H  pz         

 Vector    9  Occ=7.575008D-05  E= 0.000000D+00
              MO Center=  1.3D-03, -2.2D-03,  8.4D-03, r^2= 5.4D-01
   Bfn.  Coefficient  Atom+Function         Bfn.  Coefficient  Atom+Function  
  ----- ------------  ---------------      ----- ------------  ---------------
     9     -0.722718  2 H  py                 4      0.713420  1 H  py         
     8      0.444436  2 H  px                 3     -0.434220  1 H  px         
     5      0.058098  1 H  pz                10      0.044701  2 H  pz         
     6     -0.036687  2 H  s                  1      0.027995  1 H  s          

 Vector   10  Occ=1.613167D-05  E= 0.000000D+00
              MO Center=  4.7D-04, -4.4D-03,  1.6D-02, r^2= 5.8D-01
   Bfn.  Coefficient  Atom+Function         Bfn.  Coefficient  Atom+Function  
  ----- ------------  ---------------      ----- ------------  ---------------
    10     -1.465479  2 H  pz                 5     -1.442003  1 H  pz         
     1     -1.113162  1 H  s                  6      1.110537  2 H  s          
     2     -0.242020  1 H  s                  7      0.239172  2 H  s          
     9     -0.033417  2 H  py                 4      0.030573  1 H  py         


                     WFN1 Final Beta Natural Orbital Analysis
                     ----------------------------------------

 Vector    1  Occ=9.984294D-01  E= 0.000000D+00
              MO Center=  1.0D-04, -7.4D-04, -9.2D-04, r^2= 7.6D-01
   Bfn.  Coefficient  Atom+Function         Bfn.  Coefficient  Atom+Function  
  ----- ------------  ---------------      ----- ------------  ---------------
     1     -0.313169  1 H  s                  6     -0.311777  2 H  s          
     2     -0.286534  1 H  s                  7     -0.284163  2 H  s          

 Vector    2  Occ=1.059167D-03  E= 0.000000D+00
              MO Center= -2.9D-03,  4.3D-03,  3.4D-02, r^2= 1.9D+00
   Bfn.  Coefficient  Atom+Function         Bfn.  Coefficient  Atom+Function  
  ----- ------------  ---------------      ----- ------------  ---------------
     7     -1.574482  2 H  s                  2      1.528059  1 H  s          
     1      0.206187  1 H  s                  6     -0.154484  2 H  s          

 Vector    3  Occ=6.400880D-05  E= 0.000000D+00
              MO Center= -1.7D-04,  6.3D-04, -3.0D-02, r^2= 1.6D+00
   Bfn.  Coefficient  Atom+Function         Bfn.  Coefficient  Atom+Function  
  ----- ------------  ---------------      ----- ------------  ---------------
     6     -0.761330  2 H  s                  1     -0.757522  1 H  s          
     2      0.722600  1 H  s                  7      0.632862  2 H  s          
     5     -0.056699  1 H  pz                10      0.036958  2 H  pz         

 Vector    4  Occ=1.537185D-04  E= 0.000000D+00
              MO Center=  2.1D-03,  2.8D-03, -1.7D-02, r^2= 1.3D+00
   Bfn.  Coefficient  Atom+Function         Bfn.  Coefficient  Atom+Function  
  ----- ------------  ---------------      ----- ------------  ---------------
     2     -1.424371  1 H  s                  7      1.412046  2 H  s          
     1      0.954553  1 H  s                  6     -0.934713  2 H  s          
     5     -0.199721  1 H  pz                10     -0.177500  2 H  pz         

 Vector    5  Occ=1.110491D-18  E= 0.000000D+00
              MO Center=  8.8D-05,  9.2D-05, -6.6D-03, r^2= 4.4D-01
   Bfn.  Coefficient  Atom+Function         Bfn.  Coefficient  Atom+Function  
  ----- ------------  ---------------      ----- ------------  ---------------
     4     -0.479486  1 H  py                 9     -0.471453  2 H  py         
     3     -0.405388  1 H  px                 8     -0.393658  2 H  px         
    10     -0.026159  2 H  pz         

 Vector    6  Occ=1.505176D-04  E= 0.000000D+00
              MO Center= -2.1D-05,  2.5D-04, -4.8D-03, r^2= 4.4D-01
   Bfn.  Coefficient  Atom+Function         Bfn.  Coefficient  Atom+Function  
  ----- ------------  ---------------      ----- ------------  ---------------
     8      0.479679  2 H  px                 3      0.470566  1 H  px         
     4     -0.413670  1 H  py                 9     -0.385018  2 H  py         
     7     -0.043262  2 H  s                  6      0.031701  2 H  s          
    10      0.030839  2 H  pz         

 Vector    7  Occ=4.361927D-05  E= 0.000000D+00
              MO Center=  3.7D-04,  4.2D-05, -2.7D-03, r^2= 5.7D-01
   Bfn.  Coefficient  Atom+Function         Bfn.  Coefficient  Atom+Function  
  ----- ------------  ---------------      ----- ------------  ---------------
     5     -0.654888  1 H  pz                10      0.609076  2 H  pz         
     6      0.416269  2 H  s                  1      0.342155  1 H  s          
     7     -0.199941  2 H  s                  2     -0.166021  1 H  s          

 Vector    8  Occ=7.673887D-06  E= 0.000000D+00
              MO Center= -1.3D-03, -8.2D-04,  3.7D-03, r^2= 5.4D-01
   Bfn.  Coefficient  Atom+Function         Bfn.  Coefficient  Atom+Function  
  ----- ------------  ---------------      ----- ------------  ---------------
     3     -0.721177  1 H  px                 8      0.716073  2 H  px         
     9      0.448011  2 H  py                 4     -0.429840  1 H  py         
     7      0.032439  2 H  s                 10     -0.026409  2 H  pz         
     5     -0.026232  1 H  pz         

 Vector    9  Occ=7.575008D-05  E= 0.000000D+00
              MO Center=  1.3D-03, -2.2D-03,  8.4D-03, r^2= 5.4D-01
   Bfn.  Coefficient  Atom+Function         Bfn.  Coefficient  Atom+Function  
  ----- ------------  ---------------      ----- ------------  ---------------
     9     -0.722718  2 H  py                 4      0.713420  1 H  py         
     8      0.444436  2 H  px                 3     -0.434220  1 H  px         
     5      0.058098  1 H  pz                10      0.044701  2 H  pz         
     6     -0.036687  2 H  s                  1      0.027995  1 H  s          

 Vector   10  Occ=1.613167D-05  E= 0.000000D+00
              MO Center=  4.7D-04, -4.4D-03,  1.6D-02, r^2= 5.8D-01
   Bfn.  Coefficient  Atom+Function         Bfn.  Coefficient  Atom+Function  
  ----- ------------  ---------------      ----- ------------  ---------------
    10     -1.465479  2 H  pz                 5     -1.442003  1 H  pz         
     1     -1.113162  1 H  s                  6      1.110537  2 H  s          
     2     -0.242020  1 H  s                  7      0.239172  2 H  s          
     9     -0.033417  2 H  py                 4      0.030573  1 H  py         


 Task  times  cpu:      211.1s     wall:      272.4s
 Summary of allocated global arrays
-----------------------------------
  No active global arrays



                         GA Statistics for process    0
                         ------------------------------

       create   destroy   get      put      acc     scatter   gather  read&inc
calls:   44       44     5.80e+07 2.64e+04 3.32e+04    0        0       11     
number of processes/call 1.00e+00 1.00e+00 1.00e+00 0.00e+00 0.00e+00
bytes total:             4.64e+10 2.66e+07 3.31e+07 0.00e+00 0.00e+00 8.80e+01
bytes remote:            0.00e+00 0.00e+00 0.00e+00 0.00e+00 0.00e+00 0.00e+00
Max memory consumed for GA by this process: 268000 bytes
MA_summarize_allocated_blocks: starting scan ...
MA_summarize_allocated_blocks: scan completed: 0 heap blocks, 0 stack blocks
MA usage statistics:

	allocation statistics:
					      heap	     stack
					      ----	     -----
	current number of blocks	         0	         0
	maximum number of blocks	        19	        17
	current total bytes		         0	         0
	maximum total bytes		   3205432	  22508664
	maximum total K-bytes		      3206	     22509
	maximum total M-bytes		         4	        23


                                NWChem Input Module
                                -------------------





                                     CITATION
                                     --------
                Please cite the following reference when publishing
                           results obtained with NWChem:

                 M. Valiev, E.J. Bylaska, N. Govind, K. Kowalski,
              T.P. Straatsma, H.J.J. van Dam, D. Wang, J. Nieplocha,
                        E. Apra, T.L. Windus, W.A. de Jong
                 "NWChem: a comprehensive and scalable open-source
                  solution for large scale molecular simulations"
                      Comput. Phys. Commun. 181, 1477 (2010)
                           doi:10.1016/j.cpc.2010.04.018

                                      AUTHORS
                                      -------
          E. Apra, E. J. Bylaska, W. A. de Jong, N. Govind, K. Kowalski,
       T. P. Straatsma, M. Valiev, H. J. J. van Dam, D. Wang, T. L. Windus,
        J. Hammond, J. Autschbach, K. Bhaskaran-Nair, J. Brabec, K. Lopata,
    S. A. Fischer, S. Krishnamoorthy, M. Jacquelin, W. Ma, M. Klemm, O. Villa,
      Y. Chen, V. Anisimov, F. Aquino, S. Hirata, M. T. Hackler, V. Konjkov,
      T. Risthaus, M. Malagoli, A. Marenich, A. Otero-de-la-Roza, J. Mullin,
        P. Nichols, R. Peverati, J. Pittner, Y. Zhao, P.-D. Fan, A. Fonari,
       M. Williamson, R. J. Harrison, J. R. Rehr, M. Dupuis, D. Silverstein,
    D. M. A. Smith, J. Nieplocha, V. Tipparaju, M. Krishnan, B. E. Van Kuiken,
        A. Vazquez-Mayagoitia, L. Jensen, M. Swart, Q. Wu, T. Van Voorhis,
     A. A. Auer, M. Nooijen, L. D. Crosby, E. Brown, G. Cisneros, G. I. Fann,
   H. Fruchtl, J. Garza, K. Hirao, R. A. Kendall, J. A. Nichols, K. Tsemekhman,
    K. Wolinski, J. Anchell, D. E. Bernholdt, P. Borowski, T. Clark, D. Clerc,
   H. Dachsel, M. J. O. Deegan, K. Dyall, D. Elwood, E. Glendening, M. Gutowski,
   A. C. Hess, J. Jaffe, B. G. Johnson, J. Ju, R. Kobayashi, R. Kutteh, Z. Lin,
   R. Littlefield, X. Long, B. Meng, T. Nakajima, S. Niu, L. Pollack, M. Rosing,
   K. Glaesemann, G. Sandrone, M. Stave, H. Taylor, G. Thomas, J. H. van Lenthe,
                               A. T. Wong, Z. Zhang.

 Total times  cpu:      211.1s     wall:      272.4s
