 argument  1 = input-wf.nw



============================== echo of input deck ==============================
echo
start wfn1_dat
geometry units au noautoz
  H 0 0 -1.74434600000000000000
  H 0 0  1.74434600000000000000
  symmetry cs
end
basis
  H library 6-31g**
end
set wfn1:input_vectors "atomic"
set wfn1:solver "monte-carlo"
set wfn1:print_error F
set wfn1:t_initial 0.1
#set wfn1:corr_expr "wfn1_mx"
set wfn1:corr_expr "wfn1c"
set wfn1:t_bath 0.0
set wfn1:maxit  20000
task wfn1 energy
================================================================================


                                         
                                         


              Northwest Computational Chemistry Package (NWChem) 6.8
              ------------------------------------------------------


                    Environmental Molecular Sciences Laboratory
                       Pacific Northwest National Laboratory
                                Richland, WA 99352

                              Copyright (c) 1994-2015
                       Pacific Northwest National Laboratory
                            Battelle Memorial Institute

             NWChem is an open-source computational chemistry package
                        distributed under the terms of the
                      Educational Community License (ECL) 2.0
             A copy of the license is included with this distribution
                              in the LICENSE.TXT file

                                  ACKNOWLEDGMENT
                                  --------------

            This software and its documentation were developed at the
            EMSL at Pacific Northwest National Laboratory, a multiprogram
            national laboratory, operated for the U.S. Department of Energy
            by Battelle under Contract Number DE-AC05-76RL01830. Support
            for this work was provided by the Department of Energy Office
            of Biological and Environmental Research, Office of Basic
            Energy Sciences, and the Office of Advanced Scientific Computing.


           Job information
           ---------------

    hostname        = erato
    program         = ../../../bin/LINUX64/nwchem
    date            = Mon Mar  1 17:22:54 2021

    compiled        = Sun_Feb_28_18:02:42_2021
    source          = /home/hvandam/nwchem-1-wfn1
    nwchem branch   = Development
    nwchem revision = nwchem_on_git-124-gad72d19fff205e319ffbbf2bca37a04ded6ad57b
    ga revision     = nwchem_on_git-124-gad72d19
    use scalapack   = F
    input           = input-wf.nw
    prefix          = wfn1_dat.
    data base       = ./wfn1_dat.db
    status          = startup
    nproc           =        1
    time left       =     -1s



           Memory information
           ------------------

    heap     =   13107198 doubles =    100.0 Mbytes
    stack    =   13107195 doubles =    100.0 Mbytes
    global   =   26214400 doubles =    200.0 Mbytes (distinct from heap & stack)
    total    =   52428793 doubles =    400.0 Mbytes
    verify   = yes
    hardfail = no 


           Directory information
           ---------------------

  0 permanent = .
  0 scratch   = .




                                NWChem Input Module
                                -------------------


 Turning off AUTOSYM since
 SYMMETRY directive was detected!



                             Geometry "geometry" -> ""
                             -------------------------

 Output coordinates in a.u. (scale by  1.000000000 to convert to a.u.)

  No.       Tag          Charge          X              Y              Z
 ---- ---------------- ---------- -------------- -------------- --------------
    1 H                    1.0000     0.00000000     0.00000000    -1.74434600
    2 H                    1.0000     0.00000000     0.00000000     1.74434600

      Atomic Mass 
      ----------- 

      H                  1.007825


 Effective nuclear repulsion energy (a.u.)       0.2866403798

            Nuclear Dipole moment (a.u.) 
            ----------------------------
        X                 Y               Z
 ---------------- ---------------- ----------------
     0.0000000000     0.0000000000     0.0000000000

      Symmetry information
      --------------------

 Group name             Cs        
 Group number              2
 Group order               2
 No. of unique centers     1

      Symmetry unique atoms

     1


            XYZ format geometry
            -------------------
     2
 geometry
 H                     0.00000000     0.00000000    -0.92306822
 H                     0.00000000     0.00000000     0.92306822

                      Basis "ao basis" -> "" (cartesian)
                      -----
  H (Hydrogen)
  ------------
            Exponent  Coefficients 
       -------------- ---------------------------------------------------------
  1 S  1.87311370E+01  0.033495
  1 S  2.82539370E+00  0.234727
  1 S  6.40121700E-01  0.813757

  2 S  1.61277800E-01  1.000000

  3 P  1.10000000E+00  1.000000



 Summary of "ao basis" -> "" (cartesian)
 ------------------------------------------------------------------------------
       Tag                 Description            Shells   Functions and Types
 ---------------- ------------------------------  ------  ---------------------
 H                          6-31g**                  3        5   2s1p



                                NWChem WFN1 Module
                                ------------------



          No. of electrons :     2
           Alpha electrons :     1
            Beta electrons :     1
          Charge           :     0
          Spin multiplicity:     1

 HvD: wfn1_inpdft
 HvD: nquad_task =                     1
 HvD: iangquad   =                     0
 HvD: gridtype   = user      
 HvD: leb        =  T
 HvD: radgrid    = murakn    
 HvD: trunc_neigh=  T
 HvD: lssw       =  T
 HvD: whichssw   = erf1    
 HvD: mxnrad     =                     0
 HvD: mxnang     =                     0
 HVD: wfn1: movecs_in  = atomic                                                                                                                                                                                                                                                          
 HVD: wfn1: movecs_out = ./wfn1_dat.movecs                                                                                                                                                                                                                                               

      Superposition of Atomic Density Guess
      -------------------------------------

 Sum of atomic energies:          -0.99646508

      Non-variational initial energy
      ------------------------------

 Total energy =      -0.700235
 1-e energy   =      -1.568456
 2-e energy   =       0.581581
 HOMO         =      -0.284923
 LUMO         =      -0.086493

 iteration              energy           error
 ---------              ------           -----
         0         -0.92854883        0.200000
         1         -0.93225503        0.200000
         2         -0.93518263        0.200000
         3         -0.93566956        0.200000
         4         -0.93603413        0.200000
         5         -0.93688027        0.200000
         6         -0.93736698        0.200000
         7         -0.93855937        0.200000
         8         -0.93941787        0.200000
         9         -0.93959217        0.200000
        10         -0.94069565        0.200000
        11         -0.94107428        0.200000
        12         -0.94202272        0.200000
        13         -0.94263516        0.200000
        14         -0.94284532        0.200000
        15         -0.94296110        0.171449
        16         -0.94305281        0.171449
        17         -0.94371256        0.171449
        18         -0.94386305        0.158740
        19         -0.94394462        0.158740
        20         -0.94402567        0.136079
        21         -0.94451328        0.136079
        22         -0.94455548        0.136079
        23         -0.94495700        0.136079
        24         -0.94523248        0.116653
        25         -0.94538197        0.116653
        26         -0.94543596        0.116653
        27         -0.94550893        0.116653
        28         -0.94553755        0.108006
        29         -0.94573875        0.108006
        30         -0.94579066        0.108006
        31         -0.94613081        0.108006
        32         -0.94634825        0.108006
        33         -0.94635974        0.100000
        34         -0.94636507        0.100000
        35         -0.94640249        0.100000
        36         -0.94650052        0.100000
        37         -0.94651252        0.092587
        38         -0.94673462        0.092587
        39         -0.94686948        0.092587
        40         -0.94691033        0.092587
        41         -0.94706415        0.085724
        42         -0.94710231        0.079370
        43         -0.94729532        0.079370
        44         -0.94738159        0.079370
        45         -0.94749048        0.079370
        46         -0.94751992        0.073487
        47         -0.94753295        0.068040
        48         -0.94768309        0.068040
        49         -0.94779098        0.062996
        50         -0.94779834        0.062996
        51         -0.94780627        0.062996
        52         -0.94788743        0.062996
        53         -0.94789230        0.062996
        54         -0.94795761        0.062996
        55         -0.94811338        0.062996
        56         -0.94818886        0.062996
        57         -0.94823098        0.058326
        58         -0.94830050        0.058326
        59         -0.94839523        0.058326
        60         -0.94840394        0.058326
        61         -0.94840868        0.058326
        62         -0.94840968        0.058326
        63         -0.94841114        0.058326
        64         -0.94844970        0.058326
        65         -0.94845385        0.058326
        66         -0.94851290        0.054003
        67         -0.94858367        0.054003
        68         -0.94862690        0.054003
        69         -0.94865375        0.054003
        70         -0.94871708        0.054003
        71         -0.94872446        0.050000
        72         -0.94878510        0.050000
        73         -0.94880178        0.050000
        74         -0.94881851        0.050000
        75         -0.94883137        0.050000
        76         -0.94884849        0.050000
        77         -0.94887438        0.046294
        78         -0.94894691        0.046294
        79         -0.94899547        0.046294
        80         -0.94901635        0.046294
        81         -0.94909044        0.046294
        82         -0.94910565        0.046294
        83         -0.94913516        0.042862
        84         -0.94919610        0.042862
        85         -0.94919686        0.042862
        86         -0.94920313        0.042862
        87         -0.94922062        0.042862
        88         -0.94924073        0.042862
        89         -0.94926563        0.039685
        90         -0.94929449        0.039685
        91         -0.94931319        0.039685
        92         -0.94931576        0.036743
        93         -0.94932643        0.036743
        94         -0.94935728        0.036743
        95         -0.94937620        0.034020
        96         -0.94941457        0.034020
        97         -0.94944399        0.034020
        98         -0.94945403        0.034020
        99         -0.94946594        0.034020
       100         -0.94947858        0.031498
       101         -0.94948274        0.031498
       102         -0.94949094        0.025000
       103         -0.94949275        0.025000
       104         -0.94950795        0.025000
       105         -0.94951400        0.025000
       106         -0.94951485        0.023147
       107         -0.94952919        0.023147
       108         -0.94954118        0.023147
       109         -0.94954876        0.023147
       110         -0.94955169        0.023147
       111         -0.94955315        0.023147
       112         -0.94955735        0.023147
       113         -0.94956394        0.023147
       114         -0.94957860        0.021431
       115         -0.94958269        0.021431
       116         -0.94958459        0.021431
       117         -0.94960028        0.021431
       118         -0.94961548        0.021431
       119         -0.94963112        0.021431
       120         -0.94963535        0.021431
       121         -0.94964122        0.021431
       122         -0.94964523        0.021431
       123         -0.94966029        0.021431
       124         -0.94966489        0.021431
       125         -0.94966492        0.021431
       126         -0.94967391        0.019843
       127         -0.94967591        0.019843
       128         -0.94967679        0.019843
       129         -0.94967918        0.019843
       130         -0.94968053        0.019843
       131         -0.94968245        0.019843
       132         -0.94968800        0.019843
       133         -0.94970914        0.018372
       134         -0.94971243        0.018372
       135         -0.94971328        0.018372
       136         -0.94972035        0.018372
       137         -0.94972373        0.018372
       138         -0.94972430        0.017010
       139         -0.94972762        0.017010
       140         -0.94972932        0.017010
       141         -0.94974456        0.017010
       142         -0.94975101        0.017010
       143         -0.94976549        0.017010
       144         -0.94976862        0.017010
       145         -0.94976974        0.017010
       146         -0.94977472        0.017010
       147         -0.94977722        0.017010
       148         -0.94978115        0.017010
       149         -0.94978277        0.017010
       150         -0.94979102        0.017010
       151         -0.94979173        0.017010
       152         -0.94979375        0.014582
       153         -0.94979703        0.014582
       154         -0.94979858        0.014582
       155         -0.94980434        0.014582
       156         -0.94981435        0.014582
       157         -0.94981540        0.014582
       158         -0.94981711        0.014582
       159         -0.94981729        0.014582
       160         -0.94982169        0.014582
       161         -0.94982273        0.014582
       162         -0.94982977        0.014582
       163         -0.94983749        0.014582
       164         -0.94983753        0.014582
       165         -0.94984351        0.014582
       166         -0.94984500        0.014582
       167         -0.94984701        0.014582
       168         -0.94984807        0.014582
       169         -0.94984929        0.014582
       170         -0.94985234        0.014582
       171         -0.94985311        0.014582
       172         -0.94986282        0.014582
       173         -0.94986436        0.014582
       174         -0.94986605        0.014582
       175         -0.94986971        0.014582
       176         -0.94987800        0.014582
       177         -0.94987829        0.014582
       178         -0.94988041        0.014582
       179         -0.94988550        0.014582
       180         -0.94988753        0.014582
       181         -0.94988888        0.014582
       182         -0.94989309        0.014582
       183         -0.94989398        0.014582
       184         -0.94989429        0.014582
       185         -0.94989920        0.014582
       186         -0.94990466        0.014582
       187         -0.94990477        0.014582
       188         -0.94991574        0.014582
       189         -0.94991699        0.014582
       190         -0.94992789        0.014582
       191         -0.94993540        0.014582
       192         -0.94993621        0.014582
       193         -0.94994423        0.014582
       194         -0.94995352        0.014582
       195         -0.94995897        0.014582
       196         -0.94996466        0.014582
       197         -0.94996551        0.014582
       198         -0.94997214        0.014582
       199         -0.94997496        0.014582
       200         -0.94997778        0.014582
       201         -0.94998057        0.014582
       202         -0.94998254        0.014582
       203         -0.94998310        0.014582
       204         -0.94998714        0.014582
       205         -0.94999001        0.014582
       206         -0.94999303        0.014582
       207         -0.94999371        0.014582
       208         -0.94999806        0.014582
       209         -0.95000123        0.014582
       210         -0.95000525        0.014582
       211         -0.95000555        0.014582
       212         -0.95000726        0.014582
       213         -0.95001785        0.014582
       214         -0.95001886        0.014582
       215         -0.95001938        0.014582
       216         -0.95002453        0.014582
       217         -0.95002583        0.014582
       218         -0.95002798        0.014582
       219         -0.95002904        0.014582
       220         -0.95002928        0.014582
       221         -0.95004860        0.014582
       222         -0.95004984        0.013501
       223         -0.95005897        0.013501
       224         -0.95006556        0.013501
       225         -0.95006606        0.013501
       226         -0.95006688        0.013501
       227         -0.95006789        0.013501
       228         -0.95006817        0.013501
       229         -0.95007477        0.013501
       230         -0.95008408        0.013501
       231         -0.95008600        0.013501
       232         -0.95008710        0.013501
       233         -0.95009445        0.013501
       234         -0.95009472        0.013501
       235         -0.95009544        0.013501
       236         -0.95010007        0.013501
       237         -0.95010073        0.013501
       238         -0.95010370        0.013501
       239         -0.95011610        0.013501
       240         -0.95012505        0.013501
       241         -0.95012841        0.013501
       242         -0.95013581        0.013501
       243         -0.95013688        0.013501
       244         -0.95013801        0.013501
       245         -0.95014202        0.013501
       246         -0.95014302        0.013501
       247         -0.95014741        0.013501
       248         -0.95016164        0.013501
       249         -0.95017957        0.013501
       250         -0.95018691        0.013501
       251         -0.95018769        0.013501
       252         -0.95019088        0.013501
       253         -0.95019479        0.013501
       254         -0.95020009        0.013501
       255         -0.95020246        0.013501
       256         -0.95020266        0.013501
       257         -0.95020527        0.013501
       258         -0.95021107        0.013501
       259         -0.95021726        0.013501
       260         -0.95021975        0.012500
       261         -0.95022037        0.012500
       262         -0.95022038        0.012500
       263         -0.95022542        0.012500
       264         -0.95022756        0.012500
       265         -0.95022808        0.012500
       266         -0.95022977        0.012500
       267         -0.95023009        0.012500
       268         -0.95023212        0.012500
       269         -0.95023816        0.012500
       270         -0.95024343        0.012500
       271         -0.95024418        0.012500
       272         -0.95024642        0.012500
       273         -0.95025164        0.012500
       274         -0.95025239        0.012500
       275         -0.95025464        0.012500
       276         -0.95025533        0.012500
       277         -0.95026573        0.012500
       278         -0.95027000        0.012500
       279         -0.95027177        0.012500
       280         -0.95027192        0.012500
       281         -0.95027354        0.012500
       282         -0.95027425        0.012500
       283         -0.95027817        0.012500
       284         -0.95027955        0.012500
       285         -0.95028214        0.012500
       286         -0.95029216        0.012500
       287         -0.95029681        0.012500
       288         -0.95030097        0.012500
       289         -0.95030475        0.012500
       290         -0.95030767        0.012500
       291         -0.95030960        0.012500
       292         -0.95031433        0.012500
       293         -0.95031542        0.012500
       294         -0.95031886        0.012500
       295         -0.95032097        0.011573
       296         -0.95032110        0.011573
       297         -0.95033261        0.011573
       298         -0.95033552        0.011573
       299         -0.95033853        0.011573
       300         -0.95034301        0.011573
       301         -0.95034443        0.011573
       302         -0.95035049        0.011573
       303         -0.95035730        0.011573
       304         -0.95036857        0.011573
       305         -0.95037160        0.011573
       306         -0.95037221        0.011573
       307         -0.95037537        0.010716
       308         -0.95037643        0.010716
       309         -0.95037690        0.010716
       310         -0.95038137        0.010716
       311         -0.95038290        0.010716
       312         -0.95038595        0.010716
       313         -0.95038687        0.010716
       314         -0.95038688        0.010716
       315         -0.95039053        0.010716
       316         -0.95039372        0.010716
       317         -0.95039373        0.010716
       318         -0.95039756        0.010716
       319         -0.95039994        0.010716
       320         -0.95040178        0.010716
       321         -0.95040210        0.010716
       322         -0.95040261        0.010716
       323         -0.95041054        0.010716
       324         -0.95041309        0.010716
       325         -0.95041414        0.010716
       326         -0.95041693        0.010716
       327         -0.95042449        0.010716
       328         -0.95042821        0.010716
       329         -0.95042876        0.010716
       330         -0.95042929        0.010716
       331         -0.95042982        0.010716
       332         -0.95043294        0.010716
       333         -0.95043680        0.010716
       334         -0.95044859        0.010716
       335         -0.95045207        0.010716
       336         -0.95045564        0.010716
       337         -0.95045958        0.010716
       338         -0.95046000        0.010716
       339         -0.95046817        0.010716
       340         -0.95046952        0.010716
       341         -0.95047178        0.010716
       342         -0.95047777        0.010716
       343         -0.95048038        0.010716
       344         -0.95048453        0.010716
       345         -0.95049001        0.010716
       346         -0.95049099        0.010716
       347         -0.95049128        0.009921
       348         -0.95049380        0.009921
       349         -0.95049937        0.009921
       350         -0.95050514        0.009921
       351         -0.95050573        0.009921
       352         -0.95051101        0.009921
       353         -0.95051118        0.009921
       354         -0.95051208        0.009921
       355         -0.95051523        0.009921
       356         -0.95051744        0.009921
       357         -0.95051833        0.009921
       358         -0.95051842        0.009921
       359         -0.95052728        0.009921
       360         -0.95052883        0.009921
       361         -0.95052961        0.009921
       362         -0.95053033        0.009921
       363         -0.95053156        0.009921
       364         -0.95053756        0.009921
       365         -0.95053861        0.009921
       366         -0.95054323        0.009921
       367         -0.95054420        0.009921
       368         -0.95054564        0.009921
       369         -0.95054664        0.009921
       370         -0.95054738        0.009921
       371         -0.95054749        0.009921
       372         -0.95054832        0.009921
       373         -0.95055317        0.009921
       374         -0.95055555        0.009921
       375         -0.95056105        0.009921
       376         -0.95056214        0.009921
       377         -0.95056411        0.009921
       378         -0.95056923        0.009921
       379         -0.95056953        0.009921
       380         -0.95057025        0.009921
       381         -0.95057037        0.009921
       382         -0.95057045        0.009921
       383         -0.95057083        0.009921
       384         -0.95057199        0.009921
       385         -0.95057664        0.009921
       386         -0.95058103        0.009921
       387         -0.95058356        0.009921
       388         -0.95058414        0.009921
       389         -0.95059156        0.009921
       390         -0.95059317        0.009921
       391         -0.95059920        0.009921
       392         -0.95060042        0.009921
       393         -0.95060049        0.009921
       394         -0.95060457        0.009921
       395         -0.95060494        0.009921
       396         -0.95060578        0.009921
       397         -0.95061029        0.009921
       398         -0.95061703        0.009921
       399         -0.95062259        0.009921
       400         -0.95062342        0.009921
       401         -0.95062612        0.009921
       402         -0.95062834        0.009921
       403         -0.95062887        0.009921
       404         -0.95063164        0.009921
       405         -0.95063239        0.009921
       406         -0.95063681        0.009921
       407         -0.95063835        0.009921
       408         -0.95064069        0.009921
       409         -0.95064528        0.009921
       410         -0.95064538        0.009921
       411         -0.95064582        0.009921
       412         -0.95064964        0.009921
       413         -0.95065508        0.009921
       414         -0.95065648        0.009921
       415         -0.95066034        0.009186
       416         -0.95066508        0.009186
       417         -0.95066514        0.009186
       418         -0.95067012        0.009186
       419         -0.95067301        0.009186
       420         -0.95067384        0.009186
       421         -0.95067521        0.009186
       422         -0.95067542        0.009186
       423         -0.95067648        0.009186
       424         -0.95067808        0.009186
       425         -0.95067833        0.009186
       426         -0.95068076        0.009186
       427         -0.95068247        0.009186
       428         -0.95068813        0.009186
       429         -0.95069009        0.009186
       430         -0.95069219        0.009186
       431         -0.95069369        0.009186
       432         -0.95069895        0.009186
       433         -0.95069945        0.009186
       434         -0.95070323        0.009186
       435         -0.95070904        0.009186
       436         -0.95071922        0.009186
       437         -0.95072015        0.009186
       438         -0.95072256        0.009186
       439         -0.95072307        0.009186
       440         -0.95072785        0.009186
       441         -0.95072785        0.009186
       442         -0.95072921        0.009186
       443         -0.95073144        0.009186
       444         -0.95073374        0.009186
       445         -0.95073915        0.009186
       446         -0.95073931        0.009186
       447         -0.95074590        0.009186
       448         -0.95074899        0.009186
       449         -0.95075370        0.009186
       450         -0.95075627        0.009186
       451         -0.95075992        0.009186
       452         -0.95076056        0.009186
       453         -0.95076428        0.009186
       454         -0.95077021        0.009186
       455         -0.95077629        0.009186
       456         -0.95077947        0.009186
       457         -0.95078030        0.009186
       458         -0.95078177        0.009186
       459         -0.95078515        0.009186
       460         -0.95078551        0.009186
       461         -0.95078640        0.009186
       462         -0.95078946        0.009186
       463         -0.95079155        0.009186
       464         -0.95079633        0.009186
       465         -0.95079809        0.009186
       466         -0.95079825        0.009186
       467         -0.95079958        0.009186
       468         -0.95080390        0.009186
       469         -0.95080443        0.009186
       470         -0.95080718        0.009186
       471         -0.95080866        0.009186
       472         -0.95081151        0.009186
       473         -0.95081582        0.009186
       474         -0.95081642        0.009186
       475         -0.95081667        0.009186
       476         -0.95081731        0.009186
       477         -0.95081950        0.009186
       478         -0.95082341        0.009186
       479         -0.95082751        0.009186
       480         -0.95083340        0.009186
       481         -0.95084139        0.009186
       482         -0.95084595        0.009186
       483         -0.95084710        0.009186
       484         -0.95085240        0.009186
       485         -0.95085264        0.009186
       486         -0.95085278        0.009186
       487         -0.95085502        0.009186
       488         -0.95085645        0.009186
       489         -0.95085768        0.009186
       490         -0.95085918        0.009186
       491         -0.95086360        0.009186
       492         -0.95086406        0.009186
       493         -0.95087485        0.009186
       494         -0.95087755        0.009186
       495         -0.95087834        0.009186
       496         -0.95087842        0.009186
       497         -0.95087950        0.009186
       498         -0.95088059        0.009186
       499         -0.95088623        0.009186
       500         -0.95088727        0.009186
       501         -0.95089013        0.008505
       502         -0.95089343        0.008505
       503         -0.95089480        0.008505
       504         -0.95089541        0.008505
       505         -0.95089553        0.008505
       506         -0.95089684        0.008505
       507         -0.95090123        0.008505
       508         -0.95090218        0.008505
       509         -0.95090364        0.008505
       510         -0.95090432        0.008505
       511         -0.95090446        0.008505
       512         -0.95090756        0.008505
       513         -0.95090969        0.008505
       514         -0.95091079        0.008505
       515         -0.95091144        0.008505
       516         -0.95091511        0.008505
       517         -0.95091908        0.008505
       518         -0.95092039        0.008505
       519         -0.95092105        0.008505
       520         -0.95092202        0.008505
       521         -0.95092444        0.008505
       522         -0.95092743        0.008505
       523         -0.95092969        0.008505
       524         -0.95093096        0.008505
       525         -0.95093410        0.008505
       526         -0.95093852        0.008505
       527         -0.95094295        0.008505
       528         -0.95094415        0.008505
       529         -0.95094801        0.008505
       530         -0.95094912        0.008505
       531         -0.95095072        0.008505
       532         -0.95095080        0.008505
       533         -0.95095200        0.008505
       534         -0.95095700        0.008505
       535         -0.95096189        0.008505
       536         -0.95096277        0.008505
       537         -0.95096795        0.008505
       538         -0.95096926        0.008505
       539         -0.95097022        0.008505
       540         -0.95097336        0.008505
       541         -0.95097922        0.008505
       542         -0.95098636        0.008505
       543         -0.95098835        0.008505
       544         -0.95099113        0.008505
       545         -0.95099306        0.008505
       546         -0.95099374        0.008505
       547         -0.95099929        0.008505
       548         -0.95100019        0.008505
       549         -0.95100023        0.007875
       550         -0.95100047        0.007875
       551         -0.95100546        0.007875
       552         -0.95100907        0.007875
       553         -0.95101368        0.007875
       554         -0.95101483        0.007875
       555         -0.95101758        0.007875
       556         -0.95102272        0.007875
       557         -0.95102637        0.007875
       558         -0.95102652        0.007875
       559         -0.95102747        0.007875
       560         -0.95102928        0.007875
       561         -0.95103167        0.007875
       562         -0.95103372        0.007875
       563         -0.95103494        0.007875
       564         -0.95103543        0.007875
       565         -0.95103728        0.007875
       566         -0.95103876        0.007875
       567         -0.95103960        0.007875
       568         -0.95104028        0.007875
       569         -0.95104261        0.007875
       570         -0.95104352        0.007875
       571         -0.95104474        0.007875
       572         -0.95104597        0.007875
       573         -0.95105050        0.007875
       574         -0.95105314        0.007875
       575         -0.95105380        0.007875
       576         -0.95105471        0.007875
       577         -0.95105481        0.007875
       578         -0.95105852        0.007875
       579         -0.95106023        0.007875
       580         -0.95106053        0.007875
       581         -0.95106283        0.007875
       582         -0.95106297        0.007875
       583         -0.95106400        0.007875
       584         -0.95106805        0.007875
       585         -0.95106977        0.007875
       586         -0.95107016        0.007875
       587         -0.95107288        0.007875
       588         -0.95107438        0.007875
       589         -0.95107692        0.007875
       590         -0.95107962        0.007875
       591         -0.95108320        0.007875
       592         -0.95108463        0.007875
       593         -0.95108710        0.007875
       594         -0.95108845        0.007875
       595         -0.95108898        0.007875
       596         -0.95109027        0.007875
       597         -0.95109124        0.007875
       598         -0.95109719        0.007875
       599         -0.95110139        0.007875
       600         -0.95110563        0.007875
       601         -0.95110751        0.007875
       602         -0.95110886        0.007875
       603         -0.95110959        0.007875
       604         -0.95111089        0.007875
       605         -0.95111379        0.007875
       606         -0.95111456        0.007875
       607         -0.95112046        0.007875
       608         -0.95112268        0.007875
       609         -0.95112295        0.007875
       610         -0.95112370        0.007875
       611         -0.95112909        0.007875
       612         -0.95113019        0.007875
       613         -0.95113050        0.007875
       614         -0.95113500        0.007875
       615         -0.95113574        0.007875
       616         -0.95113706        0.007875
       617         -0.95113715        0.007875
       618         -0.95114067        0.007875
       619         -0.95114354        0.007875
       620         -0.95114761        0.007875
       621         -0.95114777        0.007875
       622         -0.95114871        0.007875
       623         -0.95114987        0.007875
       624         -0.95115017        0.007875
       625         -0.95115362        0.007875
       626         -0.95115657        0.007875
       627         -0.95115923        0.007875
       628         -0.95116183        0.007875
       629         -0.95116310        0.007875
       630         -0.95116537        0.007875
       631         -0.95116634        0.007875
       632         -0.95116785        0.007875
       633         -0.95117108        0.007875
       634         -0.95117365        0.007875
       635         -0.95117931        0.007875
       636         -0.95117949        0.007875
       637         -0.95118070        0.007291
       638         -0.95118086        0.007291
       639         -0.95118137        0.007291
       640         -0.95118348        0.007291
       641         -0.95118360        0.007291
       642         -0.95118574        0.007291
       643         -0.95118667        0.007291
       644         -0.95118674        0.007291
       645         -0.95118837        0.007291
       646         -0.95119090        0.007291
       647         -0.95119362        0.007291
       648         -0.95119687        0.007291
       649         -0.95119968        0.007291
       650         -0.95120341        0.007291
       651         -0.95120465        0.007291
       652         -0.95120541        0.007291
       653         -0.95120662        0.007291
       654         -0.95120976        0.007291
       655         -0.95121076        0.007291
       656         -0.95121180        0.007291
       657         -0.95121375        0.007291
       658         -0.95121671        0.007291
       659         -0.95122154        0.007291
       660         -0.95122235        0.007291
       661         -0.95122256        0.007291
       662         -0.95122264        0.007291
       663         -0.95122330        0.007291
       664         -0.95122929        0.007291
       665         -0.95123197        0.007291
       666         -0.95123412        0.007291
       667         -0.95123656        0.007291
       668         -0.95123758        0.007291
       669         -0.95123789        0.007291
       670         -0.95123858        0.007291
       671         -0.95123896        0.007291
       672         -0.95124449        0.007291
       673         -0.95124692        0.007291
       674         -0.95124765        0.007291
       675         -0.95125077        0.007291
       676         -0.95125427        0.007291
       677         -0.95125488        0.007291
       678         -0.95125730        0.007291
       679         -0.95125757        0.007291
       680         -0.95125924        0.007291
       681         -0.95125969        0.007291
       682         -0.95126372        0.007291
       683         -0.95126525        0.007291
       684         -0.95126941        0.007291
       685         -0.95127012        0.007291
       686         -0.95127531        0.007291
       687         -0.95127714        0.007291
       688         -0.95127837        0.007291
       689         -0.95127943        0.007291
       690         -0.95128373        0.007291
       691         -0.95128749        0.007291
       692         -0.95128854        0.007291
       693         -0.95129218        0.007291
       694         -0.95129475        0.007291
       695         -0.95129776        0.007291
       696         -0.95129821        0.007291
       697         -0.95130144        0.007291
       698         -0.95130261        0.007291
       699         -0.95130641        0.007291
       700         -0.95130803        0.007291
       701         -0.95130887        0.007291
       702         -0.95131228        0.007291
       703         -0.95131737        0.007291
       704         -0.95132034        0.007291
       705         -0.95132109        0.007291
       706         -0.95132178        0.007291
       707         -0.95132446        0.007291
       708         -0.95132783        0.007291
       709         -0.95132887        0.007291
       710         -0.95133129        0.007291
       711         -0.95133383        0.007291
       712         -0.95133737        0.007291
       713         -0.95133954        0.007291
       714         -0.95133976        0.007291
       715         -0.95134308        0.007291
       716         -0.95134389        0.007291
       717         -0.95134426        0.007291
       718         -0.95134590        0.007291
       719         -0.95134956        0.007291
       720         -0.95135124        0.007291
       721         -0.95135127        0.007291
       722         -0.95135464        0.007291
       723         -0.95135671        0.007291
       724         -0.95135799        0.007291
       725         -0.95135862        0.007291
       726         -0.95136384        0.007291
       727         -0.95136631        0.007291
       728         -0.95136932        0.007291
       729         -0.95137013        0.007291
       730         -0.95137057        0.007291
       731         -0.95137132        0.007291
       732         -0.95137307        0.007291
       733         -0.95137662        0.007291
       734         -0.95137761        0.007291
       735         -0.95137828        0.007291
       736         -0.95138062        0.007291
       737         -0.95138121        0.007291
       738         -0.95138387        0.007291
       739         -0.95138687        0.007291
       740         -0.95138759        0.007291
       741         -0.95139282        0.007291
       742         -0.95139585        0.007291
       743         -0.95139949        0.007291
       744         -0.95140008        0.007291
       745         -0.95140501        0.007291
       746         -0.95141008        0.007291
       747         -0.95141180        0.007291
       748         -0.95141182        0.007291
       749         -0.95141524        0.007291
       750         -0.95141626        0.007291
       751         -0.95141699        0.007291
       752         -0.95141730        0.007291
       753         -0.95142352        0.007291
       754         -0.95142416        0.007291
       755         -0.95142462        0.007291
       756         -0.95142483        0.007291
       757         -0.95142512        0.007291
       758         -0.95142788        0.007291
       759         -0.95143360        0.007291
       760         -0.95143440        0.007291
       761         -0.95143491        0.007291
       762         -0.95143538        0.007291
       763         -0.95143690        0.007291
       764         -0.95143909        0.007291
       765         -0.95143951        0.007291
       766         -0.95144304        0.007291
       767         -0.95144481        0.007291
       768         -0.95144655        0.007291
       769         -0.95144984        0.007291
       770         -0.95145088        0.007291
       771         -0.95145292        0.007291
       772         -0.95145401        0.007291
       773         -0.95145475        0.007291
       774         -0.95145795        0.007291
       775         -0.95146146        0.007291
       776         -0.95146311        0.007291
       777         -0.95146575        0.007291
       778         -0.95146919        0.007291
       779         -0.95146933        0.007291
       780         -0.95147013        0.007291
       781         -0.95147081        0.007291
       782         -0.95147108        0.007291
       783         -0.95147434        0.007291
       784         -0.95147876        0.007291
       785         -0.95147882        0.007291
       786         -0.95148040        0.007291
       787         -0.95148082        0.007291
       788         -0.95148092        0.007291
       789         -0.95148174        0.007291
       790         -0.95148248        0.007291
       791         -0.95149036        0.007291
       792         -0.95149206        0.007291
       793         -0.95149210        0.007291
       794         -0.95149303        0.007291
       795         -0.95149834        0.007291
       796         -0.95150361        0.007291
       797         -0.95150655        0.007291
       798         -0.95150721        0.007291
       799         -0.95150872        0.007291
       800         -0.95151229        0.007291
       801         -0.95151661        0.007291
       802         -0.95151845        0.007291
       803         -0.95152087        0.007291
       804         -0.95152424        0.007291
       805         -0.95152520        0.007291
       806         -0.95152656        0.007291
       807         -0.95153006        0.007291
       808         -0.95153345        0.007291
       809         -0.95153852        0.007291
       810         -0.95154206        0.007291
       811         -0.95154301        0.007291
       812         -0.95154767        0.007291
       813         -0.95154842        0.007291
       814         -0.95154946        0.007291
       815         -0.95155333        0.007291
       816         -0.95155858        0.007291
       817         -0.95156220        0.007291
       818         -0.95156402        0.007291
       819         -0.95156502        0.007291
       820         -0.95156752        0.007291
       821         -0.95156893        0.007291
       822         -0.95156906        0.007291
       823         -0.95157056        0.007291
       824         -0.95157068        0.007291
       825         -0.95157078        0.007291
       826         -0.95157591        0.007291
       827         -0.95158140        0.007291
       828         -0.95158298        0.007291
       829         -0.95158761        0.007291
       830         -0.95158870        0.007291
       831         -0.95159000        0.007291
       832         -0.95159330        0.007291
       833         -0.95159423        0.007291
       834         -0.95159468        0.007291
       835         -0.95159483        0.007291
       836         -0.95159724        0.007291
       837         -0.95159844        0.007291
       838         -0.95159862        0.007291
       839         -0.95160266        0.007291
       840         -0.95160400        0.007291
       841         -0.95160773        0.007291
       842         -0.95160829        0.007291
       843         -0.95161005        0.007291
       844         -0.95161390        0.007291
       845         -0.95161565        0.007291
       846         -0.95161665        0.007291
       847         -0.95161846        0.007291
       848         -0.95162098        0.007291
       849         -0.95162245        0.007291
       850         -0.95162381        0.007291
       851         -0.95162581        0.007291
       852         -0.95162945        0.007291
       853         -0.95163492        0.007291
       854         -0.95163510        0.007291
       855         -0.95163667        0.007291
       856         -0.95163705        0.007291
       857         -0.95163798        0.007291
       858         -0.95163947        0.007291
       859         -0.95164306        0.007291
       860         -0.95164325        0.007291
       861         -0.95164505        0.007291
       862         -0.95164803        0.007291
       863         -0.95165073        0.007291
       864         -0.95165091        0.007291
       865         -0.95165889        0.007291
       866         -0.95166473        0.007291
       867         -0.95166606        0.007291
       868         -0.95166863        0.007291
       869         -0.95166950        0.007291
       870         -0.95167496        0.007291
       871         -0.95167547        0.007291
       872         -0.95168040        0.007291
       873         -0.95168068        0.007291
       874         -0.95168215        0.007291
       875         -0.95168470        0.007291
       876         -0.95168706        0.007291
       877         -0.95168811        0.007291
       878         -0.95168972        0.007291
       879         -0.95169092        0.007291
       880         -0.95169554        0.007291
       881         -0.95169627        0.007291
       882         -0.95169751        0.007291
       883         -0.95169992        0.007291
       884         -0.95170146        0.007291
       885         -0.95170223        0.007291
       886         -0.95170254        0.007291
       887         -0.95170401        0.007291
       888         -0.95170412        0.007291
       889         -0.95170881        0.007291
       890         -0.95171023        0.006750
       891         -0.95171109        0.006750
       892         -0.95171298        0.006750
       893         -0.95171406        0.006750
       894         -0.95171849        0.006750
       895         -0.95171959        0.006750
       896         -0.95172334        0.006750
       897         -0.95173292        0.006750
       898         -0.95173356        0.006750
       899         -0.95173459        0.006750
       900         -0.95173834        0.006750
       901         -0.95173963        0.006750
       902         -0.95174220        0.006750
       903         -0.95174399        0.006750
       904         -0.95174529        0.006750
       905         -0.95174701        0.006750
       906         -0.95175015        0.006750
       907         -0.95175443        0.006750
       908         -0.95175830        0.006750
       909         -0.95176049        0.006750
       910         -0.95176402        0.006750
       911         -0.95176589        0.006750
       912         -0.95176969        0.006750
       913         -0.95177204        0.006750
       914         -0.95177344        0.006750
       915         -0.95177480        0.006750
       916         -0.95177555        0.006750
       917         -0.95177614        0.006750
       918         -0.95178081        0.006750
       919         -0.95178156        0.006750
       920         -0.95178230        0.006750
       921         -0.95178372        0.006750
       922         -0.95178779        0.006750
       923         -0.95178869        0.006750
       924         -0.95179239        0.006750
       925         -0.95179388        0.006750
       926         -0.95179429        0.006750
       927         -0.95179627        0.006750
       928         -0.95180087        0.006750
       929         -0.95180107        0.006750
       930         -0.95180482        0.006750
       931         -0.95180839        0.006750
       932         -0.95180851        0.006750
       933         -0.95180970        0.006750
       934         -0.95181613        0.006750
       935         -0.95181624        0.006750
       936         -0.95181811        0.006750
       937         -0.95182030        0.006750
       938         -0.95182143        0.006750
       939         -0.95182304        0.006750
       940         -0.95182608        0.006750
       941         -0.95182650        0.006750
       942         -0.95182676        0.006750
       943         -0.95182821        0.006750
       944         -0.95183140        0.006750
       945         -0.95183559        0.006750
       946         -0.95183690        0.006750
       947         -0.95184098        0.006750
       948         -0.95184110        0.006750
       949         -0.95184270        0.006750
       950         -0.95184497        0.006750
       951         -0.95184569        0.006750
       952         -0.95185168        0.006750
       953         -0.95185595        0.006750
       954         -0.95185652        0.006750
       955         -0.95185723        0.006750
       956         -0.95185893        0.006750
       957         -0.95186065        0.006750
       958         -0.95186287        0.006750
       959         -0.95186380        0.006750
       960         -0.95186485        0.006750
       961         -0.95186495        0.006750
       962         -0.95186651        0.006750
       963         -0.95186660        0.006750
       964         -0.95186804        0.006750
       965         -0.95187213        0.006750
       966         -0.95187749        0.006750
       967         -0.95187956        0.006750
       968         -0.95188225        0.006750
       969         -0.95188336        0.006750
       970         -0.95188588        0.006750
       971         -0.95188684        0.006750
       972         -0.95188961        0.006750
       973         -0.95189384        0.006750
       974         -0.95189668        0.006750
       975         -0.95190053        0.006750
       976         -0.95190239        0.006750
       977         -0.95190468        0.006750
       978         -0.95190517        0.006750
       979         -0.95191028        0.006750
       980         -0.95191031        0.006750
       981         -0.95191242        0.006750
       982         -0.95191379        0.006750
       983         -0.95191663        0.006750
       984         -0.95191755        0.006750
       985         -0.95192028        0.006750
       986         -0.95192348        0.006750
       987         -0.95192377        0.006750
       988         -0.95192670        0.006750
       989         -0.95192724        0.006750
       990         -0.95193253        0.006750
       991         -0.95193741        0.006750
       992         -0.95193956        0.006750
       993         -0.95194039        0.006750
       994         -0.95194368        0.006750
       995         -0.95194433        0.006750
       996         -0.95194477        0.006750
       997         -0.95194768        0.006750
       998         -0.95194958        0.006750
       999         -0.95195172        0.006750
      1000         -0.95195474        0.006750
      1001         -0.95195537        0.006750
      1002         -0.95195788        0.006750
      1003         -0.95196052        0.006750
      1004         -0.95196447        0.006750
      1005         -0.95196448        0.006750
      1006         -0.95196483        0.006750
      1007         -0.95196688        0.006750
      1008         -0.95196904        0.006750
      1009         -0.95196929        0.006750
      1010         -0.95197119        0.006750
      1011         -0.95197390        0.006750
      1012         -0.95197476        0.006750
      1013         -0.95197978        0.006250
      1014         -0.95197996        0.006250
      1015         -0.95198053        0.006250
      1016         -0.95198657        0.006250
      1017         -0.95198747        0.006250
      1018         -0.95198849        0.006250
      1019         -0.95198867        0.006250
      1020         -0.95199326        0.006250
      1021         -0.95199419        0.006250
      1022         -0.95199685        0.006250
      1023         -0.95199690        0.006250
      1024         -0.95199731        0.006250
      1025         -0.95199993        0.006250
      1026         -0.95200054        0.006250
      1027         -0.95200232        0.006250
      1028         -0.95200268        0.006250
      1029         -0.95200432        0.006250
      1030         -0.95200488        0.006250
      1031         -0.95200536        0.006250
      1032         -0.95200719        0.006250
      1033         -0.95200924        0.006250
      1034         -0.95201124        0.006250
      1035         -0.95201272        0.006250
      1036         -0.95201319        0.006250
      1037         -0.95201795        0.006250
      1038         -0.95201817        0.006250
      1039         -0.95202422        0.006250
      1040         -0.95202442        0.006250
      1041         -0.95202871        0.006250
      1042         -0.95202959        0.006250
      1043         -0.95202975        0.006250
      1044         -0.95203100        0.006250
      1045         -0.95203230        0.006250
      1046         -0.95203295        0.006250
      1047         -0.95203306        0.006250
      1048         -0.95203376        0.006250
      1049         -0.95203514        0.006250
      1050         -0.95203633        0.006250
      1051         -0.95203744        0.006250
      1052         -0.95204109        0.006250
      1053         -0.95204246        0.006250
      1054         -0.95205011        0.006250
      1055         -0.95205329        0.006250
      1056         -0.95205576        0.006250
      1057         -0.95205804        0.006250
      1058         -0.95205913        0.006250
      1059         -0.95206163        0.006250
      1060         -0.95206257        0.006250
      1061         -0.95206385        0.006250
      1062         -0.95206604        0.006250
      1063         -0.95206612        0.006250
      1064         -0.95206732        0.006250
      1065         -0.95206878        0.006250
      1066         -0.95207054        0.006250
      1067         -0.95207176        0.006250
      1068         -0.95207188        0.006250
      1069         -0.95207316        0.006250
      1070         -0.95207398        0.006250
      1071         -0.95207486        0.006250
      1072         -0.95208000        0.006250
      1073         -0.95208140        0.006250
      1074         -0.95208243        0.006250
      1075         -0.95208247        0.006250
      1076         -0.95208288        0.006250
      1077         -0.95208371        0.006250
      1078         -0.95208711        0.006250
      1079         -0.95208746        0.006250
      1080         -0.95208906        0.006250
      1081         -0.95208950        0.006250
      1082         -0.95209539        0.006250
      1083         -0.95210019        0.006250
      1084         -0.95210331        0.006250
      1085         -0.95210741        0.006250
      1086         -0.95211183        0.006250
      1087         -0.95211414        0.006250
      1088         -0.95211566        0.006250
      1089         -0.95211971        0.006250
      1090         -0.95212147        0.006250
      1091         -0.95212423        0.006250
      1092         -0.95212547        0.006250
      1093         -0.95212632        0.006250
      1094         -0.95212650        0.005787
      1095         -0.95212761        0.005787
      1096         -0.95212876        0.005787
      1097         -0.95213119        0.005787
      1098         -0.95213212        0.005787
      1099         -0.95213282        0.005787
      1100         -0.95213437        0.005787
      1101         -0.95213518        0.005787
      1102         -0.95213642        0.005787
      1103         -0.95214280        0.005787
      1104         -0.95214399        0.005787
      1105         -0.95214513        0.005787
      1106         -0.95214789        0.005787
      1107         -0.95214900        0.005787
      1108         -0.95215134        0.005787
      1109         -0.95215337        0.005787
      1110         -0.95215563        0.005787
      1111         -0.95215700        0.005787
      1112         -0.95215924        0.005787
      1113         -0.95216183        0.005787
      1114         -0.95216215        0.005787
      1115         -0.95216333        0.005787
      1116         -0.95216362        0.005787
      1117         -0.95216561        0.005787
      1118         -0.95216745        0.005787
      1119         -0.95216788        0.005787
      1120         -0.95217060        0.005787
      1121         -0.95217541        0.005787
      1122         -0.95217904        0.005787
      1123         -0.95218181        0.005787
      1124         -0.95218458        0.005787
      1125         -0.95218586        0.005787
      1126         -0.95218600        0.005787
      1127         -0.95218625        0.005787
      1128         -0.95218644        0.005787
      1129         -0.95218745        0.005787
      1130         -0.95218810        0.005787
      1131         -0.95218828        0.005787
      1132         -0.95219104        0.005787
      1133         -0.95219231        0.005787
      1134         -0.95219295        0.005787
      1135         -0.95219368        0.005787
      1136         -0.95219810        0.005787
      1137         -0.95219872        0.005787
      1138         -0.95219880        0.005787
      1139         -0.95220203        0.005787
      1140         -0.95220235        0.005787
      1141         -0.95220296        0.005787
      1142         -0.95220446        0.005787
      1143         -0.95220587        0.005787
      1144         -0.95220600        0.005787
      1145         -0.95220721        0.005787
      1146         -0.95220820        0.005787
      1147         -0.95221030        0.005787
      1148         -0.95221109        0.005787
      1149         -0.95221119        0.005787
      1150         -0.95221342        0.005787
      1151         -0.95221390        0.005787
      1152         -0.95221400        0.005787
      1153         -0.95221499        0.005787
      1154         -0.95221738        0.005787
      1155         -0.95221827        0.005787
      1156         -0.95221971        0.005787
      1157         -0.95222100        0.005787
      1158         -0.95222217        0.005787
      1159         -0.95222318        0.005787
      1160         -0.95222756        0.005787
      1161         -0.95222770        0.005787
      1162         -0.95223236        0.005787
      1163         -0.95223438        0.005787
      1164         -0.95223494        0.005787
      1165         -0.95223722        0.005787
      1166         -0.95223744        0.005787
      1167         -0.95223812        0.005787
      1168         -0.95223994        0.005787
      1169         -0.95224012        0.005787
      1170         -0.95224676        0.005787
      1171         -0.95224775        0.005787
      1172         -0.95224889        0.005787
      1173         -0.95225112        0.005787
      1174         -0.95225353        0.005787
      1175         -0.95226036        0.005787
      1176         -0.95226048        0.005787
      1177         -0.95226089        0.005787
      1178         -0.95226103        0.005787
      1179         -0.95226269        0.005787
      1180         -0.95226305        0.005787
      1181         -0.95226756        0.005787
      1182         -0.95226833        0.005787
      1183         -0.95226956        0.005787
      1184         -0.95227219        0.005787
      1185         -0.95227274        0.005787
      1186         -0.95227365        0.005787
      1187         -0.95227466        0.005787
      1188         -0.95227765        0.005787
      1189         -0.95227899        0.005787
      1190         -0.95227987        0.005787
      1191         -0.95228013        0.005787
      1192         -0.95228416        0.005787
      1193         -0.95228632        0.005787
      1194         -0.95228647        0.005787
      1195         -0.95228683        0.005787
      1196         -0.95228881        0.005787
      1197         -0.95228941        0.005787
      1198         -0.95229015        0.005787
      1199         -0.95229064        0.005787
      1200         -0.95229075        0.005787
      1201         -0.95229201        0.005787
      1202         -0.95229278        0.005787
      1203         -0.95229280        0.005787
      1204         -0.95229367        0.005787
      1205         -0.95229535        0.005787
      1206         -0.95230095        0.005787
      1207         -0.95230248        0.005787
      1208         -0.95230263        0.005787
      1209         -0.95230436        0.005787
      1210         -0.95230764        0.005787
      1211         -0.95230923        0.005787
      1212         -0.95231442        0.005787
      1213         -0.95231460        0.005787
      1214         -0.95232086        0.005787
      1215         -0.95232109        0.005787
      1216         -0.95232134        0.005787
      1217         -0.95232230        0.005787
      1218         -0.95232254        0.005787
      1219         -0.95232602        0.005787
      1220         -0.95232645        0.005787
      1221         -0.95232714        0.005787
      1222         -0.95233121        0.005787
      1223         -0.95233320        0.005787
      1224         -0.95233746        0.005787
      1225         -0.95233847        0.005787
      1226         -0.95234040        0.005787
      1227         -0.95234065        0.005787
      1228         -0.95234284        0.005787
      1229         -0.95234401        0.005787
      1230         -0.95234453        0.005787
      1231         -0.95234729        0.005787
      1232         -0.95234775        0.005787
      1233         -0.95235157        0.005787
      1234         -0.95235358        0.005787
      1235         -0.95235404        0.005787
      1236         -0.95235442        0.005787
      1237         -0.95235865        0.005787
      1238         -0.95235969        0.005787
      1239         -0.95236478        0.005787
      1240         -0.95236722        0.005787
      1241         -0.95237039        0.005787
      1242         -0.95237380        0.005787
      1243         -0.95237424        0.005787
      1244         -0.95237513        0.005787
      1245         -0.95237775        0.005787
      1246         -0.95237861        0.005787
      1247         -0.95237969        0.005787
      1248         -0.95238332        0.005787
      1249         -0.95238698        0.005787
      1250         -0.95238849        0.005787
      1251         -0.95238964        0.005787
      1252         -0.95239042        0.005787
      1253         -0.95239072        0.005787
      1254         -0.95239109        0.005787
      1255         -0.95239429        0.005787
      1256         -0.95239514        0.005787
      1257         -0.95239528        0.005787
      1258         -0.95239644        0.005787
      1259         -0.95239957        0.005787
      1260         -0.95240073        0.005787
      1261         -0.95240350        0.005787
      1262         -0.95240367        0.005787
      1263         -0.95240540        0.005787
      1264         -0.95240753        0.005787
      1265         -0.95240844        0.005787
      1266         -0.95241071        0.005787
      1267         -0.95241187        0.005787
      1268         -0.95241459        0.005787
      1269         -0.95241522        0.005787
      1270         -0.95241691        0.005787
      1271         -0.95241916        0.005787
      1272         -0.95241933        0.005787
      1273         -0.95242166        0.005787
      1274         -0.95242337        0.005787
      1275         -0.95242548        0.005787
      1276         -0.95242565        0.005787
      1277         -0.95242701        0.005787
      1278         -0.95242824        0.005787
      1279         -0.95243010        0.005787
      1280         -0.95243057        0.005787
      1281         -0.95243121        0.005787
      1282         -0.95243128        0.005787
      1283         -0.95243134        0.005787
      1284         -0.95243215        0.005787
      1285         -0.95243294        0.005787
      1286         -0.95243388        0.005787
      1287         -0.95243654        0.005787
      1288         -0.95243925        0.005787
      1289         -0.95244333        0.005787
      1290         -0.95244429        0.005787
      1291         -0.95244494        0.005787
      1292         -0.95244624        0.005787
      1293         -0.95245002        0.005787
      1294         -0.95245018        0.005787
      1295         -0.95245379        0.005787
      1296         -0.95245469        0.005787
      1297         -0.95245630        0.005787
      1298         -0.95245813        0.005787
      1299         -0.95245969        0.005787
      1300         -0.95245991        0.005787
      1301         -0.95246081        0.005787
      1302         -0.95246252        0.005787
      1303         -0.95246440        0.005787
      1304         -0.95246556        0.005787
      1305         -0.95246617        0.005787
      1306         -0.95246698        0.005787
      1307         -0.95246701        0.005787
      1308         -0.95246821        0.005787
      1309         -0.95246824        0.005787
      1310         -0.95246940        0.005787
      1311         -0.95247013        0.005787
      1312         -0.95247097        0.005787
      1313         -0.95247171        0.005787
      1314         -0.95247533        0.005787
      1315         -0.95247556        0.005787
      1316         -0.95247791        0.005787
      1317         -0.95247926        0.005787
      1318         -0.95248286        0.005787
      1319         -0.95248499        0.005787
      1320         -0.95248504        0.005787
      1321         -0.95248509        0.005787
      1322         -0.95248607        0.005787
      1323         -0.95248649        0.005787
      1324         -0.95248806        0.005787
      1325         -0.95248816        0.005787
      1326         -0.95249100        0.005787
      1327         -0.95249206        0.005787
      1328         -0.95249213        0.005787
      1329         -0.95249341        0.005787
      1330         -0.95249455        0.005787
      1331         -0.95249696        0.005787
      1332         -0.95249829        0.005787
      1333         -0.95249877        0.005787
      1334         -0.95250273        0.005787
      1335         -0.95250508        0.005787
      1336         -0.95250534        0.005787
      1337         -0.95250764        0.005787
      1338         -0.95251092        0.005787
      1339         -0.95251108        0.005787
      1340         -0.95251261        0.005787
      1341         -0.95251408        0.005787
      1342         -0.95251553        0.005787
      1343         -0.95251557        0.005787
      1344         -0.95251851        0.005787
      1345         -0.95252145        0.005787
      1346         -0.95252163        0.005787
      1347         -0.95252196        0.005787
      1348         -0.95252238        0.005787
      1349         -0.95252335        0.005787
      1350         -0.95252546        0.005787
      1351         -0.95252662        0.005787
      1352         -0.95252858        0.005787
      1353         -0.95252967        0.005787
      1354         -0.95253144        0.005787
      1355         -0.95253425        0.005787
      1356         -0.95253846        0.005787
      1357         -0.95253874        0.005787
      1358         -0.95253885        0.005787
      1359         -0.95253943        0.005787
      1360         -0.95253958        0.005787
      1361         -0.95254001        0.005787
      1362         -0.95254472        0.005787
      1363         -0.95254477        0.005787
      1364         -0.95254673        0.005787
      1365         -0.95254775        0.005787
      1366         -0.95255076        0.005787
      1367         -0.95255078        0.005787
      1368         -0.95255215        0.005787
      1369         -0.95255317        0.005787
      1370         -0.95255558        0.005787
      1371         -0.95255613        0.005787
      1372         -0.95255782        0.005787
      1373         -0.95255905        0.005787
      1374         -0.95256155        0.005787
      1375         -0.95256273        0.005787
      1376         -0.95256681        0.005787
      1377         -0.95256889        0.005787
      1378         -0.95257095        0.005787
      1379         -0.95257125        0.005787
      1380         -0.95257267        0.005787
      1381         -0.95257539        0.005787
      1382         -0.95257757        0.005787
      1383         -0.95257760        0.005787
      1384         -0.95258084        0.005787
      1385         -0.95258442        0.005787
      1386         -0.95258511        0.005787
      1387         -0.95258769        0.005787
      1388         -0.95258912        0.005787
      1389         -0.95258915        0.005787
      1390         -0.95259432        0.005787
      1391         -0.95259442        0.005787
      1392         -0.95259682        0.005787
      1393         -0.95259706        0.005787
      1394         -0.95259741        0.005787
      1395         -0.95260091        0.005787
      1396         -0.95260253        0.005787
      1397         -0.95260384        0.005787
      1398         -0.95260385        0.005787
      1399         -0.95260597        0.005787
      1400         -0.95260662        0.005787
      1401         -0.95260781        0.005787
      1402         -0.95260849        0.005787
      1403         -0.95260964        0.005787
      1404         -0.95261759        0.005787
      1405         -0.95262130        0.005787
      1406         -0.95262234        0.005787
      1407         -0.95262394        0.005787
      1408         -0.95262490        0.005787
      1409         -0.95262702        0.005787
      1410         -0.95263022        0.005787
      1411         -0.95263175        0.005787
      1412         -0.95263235        0.005787
      1413         -0.95263246        0.005787
      1414         -0.95263446        0.005787
      1415         -0.95263601        0.005787
      1416         -0.95263662        0.005787
      1417         -0.95263834        0.005787
      1418         -0.95264293        0.005787
      1419         -0.95264609        0.005787
      1420         -0.95264732        0.005787
      1421         -0.95264792        0.005787
      1422         -0.95264901        0.005787
      1423         -0.95265160        0.005787
      1424         -0.95265433        0.005787
      1425         -0.95265535        0.005787
      1426         -0.95265730        0.005787
      1427         -0.95265803        0.005787
      1428         -0.95265962        0.005787
      1429         -0.95266483        0.005787
      1430         -0.95266615        0.005787
      1431         -0.95266708        0.005787
      1432         -0.95266898        0.005787
      1433         -0.95266987        0.005787
      1434         -0.95267284        0.005787
      1435         -0.95267347        0.005787
      1436         -0.95267534        0.005787
      1437         -0.95267724        0.005787
      1438         -0.95267874        0.005787
      1439         -0.95267917        0.005787
      1440         -0.95268256        0.005787
      1441         -0.95268371        0.005787
      1442         -0.95268593        0.005787
      1443         -0.95268598        0.005787
      1444         -0.95268776        0.005787
      1445         -0.95269276        0.005787
      1446         -0.95269498        0.005787
      1447         -0.95269531        0.005787
      1448         -0.95269548        0.005787
      1449         -0.95269708        0.005787
      1450         -0.95269848        0.005787
      1451         -0.95270083        0.005787
      1452         -0.95270446        0.005787
      1453         -0.95270467        0.005787
      1454         -0.95270646        0.005787
      1455         -0.95270695        0.005787
      1456         -0.95270861        0.005787
      1457         -0.95270940        0.005787
      1458         -0.95271357        0.005787
      1459         -0.95271583        0.005787
      1460         -0.95271652        0.005787
      1461         -0.95271655        0.005787
      1462         -0.95271884        0.005787
      1463         -0.95271908        0.005787
      1464         -0.95272082        0.005787
      1465         -0.95272539        0.005787
      1466         -0.95272545        0.005787
      1467         -0.95272755        0.005787
      1468         -0.95272843        0.005787
      1469         -0.95272898        0.005787
      1470         -0.95273273        0.005787
      1471         -0.95273688        0.005787
      1472         -0.95273850        0.005787
      1473         -0.95273865        0.005787
      1474         -0.95274197        0.005787
      1475         -0.95274229        0.005787
      1476         -0.95274395        0.005787
      1477         -0.95274677        0.005787
      1478         -0.95274877        0.005787
      1479         -0.95275072        0.005787
      1480         -0.95275199        0.005787
      1481         -0.95275278        0.005787
      1482         -0.95275432        0.005787
      1483         -0.95275556        0.005787
      1484         -0.95275678        0.005787
      1485         -0.95275718        0.005787
      1486         -0.95275736        0.005787
      1487         -0.95275787        0.005787
      1488         -0.95275796        0.005787
      1489         -0.95275841        0.005787
      1490         -0.95276165        0.005787
      1491         -0.95276485        0.005787
      1492         -0.95276524        0.005787
      1493         -0.95276760        0.005787
      1494         -0.95276911        0.005787
      1495         -0.95276947        0.005787
      1496         -0.95277253        0.005787
      1497         -0.95277784        0.005787
      1498         -0.95277792        0.005787
      1499         -0.95277919        0.005787
      1500         -0.95278154        0.005787
      1501         -0.95278279        0.005787
      1502         -0.95278604        0.005787
      1503         -0.95278784        0.005787
      1504         -0.95278868        0.005787
      1505         -0.95278902        0.005787
      1506         -0.95279114        0.005787
      1507         -0.95279523        0.005787
      1508         -0.95279726        0.005787
      1509         -0.95279867        0.005787
      1510         -0.95280053        0.005787
      1511         -0.95280083        0.005787
      1512         -0.95280146        0.005787
      1513         -0.95280262        0.005787
      1514         -0.95280322        0.005787
      1515         -0.95280714        0.005787
      1516         -0.95281027        0.005787
      1517         -0.95281043        0.005787
      1518         -0.95281211        0.005787
      1519         -0.95281689        0.005787
      1520         -0.95281849        0.005787
      1521         -0.95282063        0.005787
      1522         -0.95282287        0.005787
      1523         -0.95282296        0.005787
      1524         -0.95282604        0.005787
      1525         -0.95282750        0.005787
      1526         -0.95282943        0.005787
      1527         -0.95283355        0.005787
      1528         -0.95283428        0.005787
      1529         -0.95283660        0.005787
      1530         -0.95283896        0.005787
      1531         -0.95284094        0.005787
      1532         -0.95284382        0.005787
      1533         -0.95284476        0.005787
      1534         -0.95284607        0.005787
      1535         -0.95284638        0.005787
      1536         -0.95284831        0.005787
      1537         -0.95284850        0.005787
      1538         -0.95284857        0.005787
      1539         -0.95284994        0.005787
      1540         -0.95285374        0.005787
      1541         -0.95285528        0.005787
      1542         -0.95285690        0.005787
      1543         -0.95285811        0.005787
      1544         -0.95286032        0.005787
      1545         -0.95286145        0.005787
      1546         -0.95286184        0.005787
      1547         -0.95286299        0.005787
      1548         -0.95286527        0.005787
      1549         -0.95286680        0.005787
      1550         -0.95286940        0.005787
      1551         -0.95287164        0.005787
[...]
   1      -0.93522,   -0.24270     0.24276,    0.05632     0.03322,   -0.00833    -0.00752,   -0.02377    -0.02763,   -0.01000    -0.02813,    0.00828
   2      -0.12633,   -0.21087    -0.51528,   -0.81231     0.04270,    0.02863     0.01547,    0.00968    -0.00491,   -0.00970    -0.00296,    0.00760
   3       0.02278,    0.03306     0.04047,    0.01437     0.69782,    0.03814     0.70412,    0.03914     0.01078,   -0.01887    -0.04665,   -0.01951
   4      -0.03213,    0.01234    -0.01695,    0.00032    -0.66010,    0.23584     0.66353,   -0.23364    -0.01458,    0.02019    -0.00666,    0.04542
   5      -0.02168,    0.01401     0.00745,   -0.00394    -0.07553,   -0.03743     0.04819,   -0.00069     0.46987,   -0.30144     0.32757,   -0.19824
   6       0.01768,   -0.01488    -0.01235,   -0.01001    -0.00271,    0.02890     0.01607,    0.00929    -0.18189,    0.37571    -0.26124,    0.50260
   7      -0.02305,   -0.00233    -0.00637,   -0.06067     0.03521,    0.01289     0.03363,   -0.01080     0.32518,   -0.14893    -0.02850,   -0.02469
   8      -0.00162,    0.02203     0.00048,    0.06949     0.05501,    0.01777    -0.01299,    0.03013     0.12209,   -0.42538    -0.12527,    0.44300
   9      -0.00049,    0.02392     0.00230,    0.03754     0.02862,   -0.05083     0.01154,   -0.03000     0.14591,    0.36222    -0.18106,   -0.48195
  10      -0.01339,    0.01634     0.00971,    0.00387    -0.01641,    0.00730    -0.01384,   -0.02548     0.14408,    0.12249    -0.18689,   -0.11669

                     7                       8                       9                      10  
       ----------------------- ----------------------- ----------------------- -----------------------
   1       0.01226,   -0.01078    -0.00656,    0.00033    -0.01084,   -0.00775    -0.00609,   -0.01794
   2       0.04452,    0.03097    -0.02351,   -0.03934    -0.03226,    0.06980    -0.00834,   -0.00452
   3       0.03617,   -0.05622    -0.00502,    0.03259    -0.03945,    0.00391     0.00572,    0.02511
   4      -0.01926,    0.08094    -0.01742,    0.02607    -0.01756,    0.02145    -0.00403,   -0.02987
   5       0.44491,   -0.29374     0.40150,   -0.27776     0.04548,   -0.05538     0.05231,    0.03368
   6       0.12853,   -0.29825     0.20923,   -0.46632     0.16885,   -0.32379     0.03841,   -0.03748
   7      -0.37092,    0.18189    -0.05797,    0.01173     0.75780,   -0.33889     0.00168,   -0.02157
   8      -0.14741,    0.45231     0.14366,   -0.41543    -0.11372,    0.38616     0.02312,   -0.01846
   9       0.15178,    0.37098    -0.13367,   -0.44780    -0.03585,    0.01234    -0.18186,   -0.40307
  10       0.14012,    0.13570    -0.25861,   -0.11921    -0.02138,   -0.00533     0.77927,    0.43253

                   WFN1 Final beta Correlation Function Analysis
                   ---------------------------------------------


 global array: Cb[1:10,1:10],  handle: -980 

                     1                       2                       3                       4                       5                       6  
       ----------------------- ----------------------- ----------------------- ----------------------- ----------------------- -----------------------
   1      -0.93522,   -0.24270     0.24276,    0.05632     0.03322,   -0.00833    -0.00752,   -0.02377    -0.02763,   -0.01000    -0.02813,    0.00828
   2      -0.12633,   -0.21087    -0.51528,   -0.81231     0.04270,    0.02863     0.01547,    0.00968    -0.00491,   -0.00970    -0.00296,    0.00760
   3       0.02278,    0.03306     0.04047,    0.01437     0.69782,    0.03814     0.70412,    0.03914     0.01078,   -0.01887    -0.04665,   -0.01951
   4      -0.03213,    0.01234    -0.01695,    0.00032    -0.66010,    0.23584     0.66353,   -0.23364    -0.01458,    0.02019    -0.00666,    0.04542
   5      -0.02168,    0.01401     0.00745,   -0.00394    -0.07553,   -0.03743     0.04819,   -0.00069     0.46987,   -0.30144     0.32757,   -0.19824
   6       0.01768,   -0.01488    -0.01235,   -0.01001    -0.00271,    0.02890     0.01607,    0.00929    -0.18189,    0.37571    -0.26124,    0.50260
   7      -0.02305,   -0.00233    -0.00637,   -0.06067     0.03521,    0.01289     0.03363,   -0.01080     0.32518,   -0.14893    -0.02850,   -0.02469
   8      -0.00162,    0.02203     0.00048,    0.06949     0.05501,    0.01777    -0.01299,    0.03013     0.12209,   -0.42538    -0.12527,    0.44300
   9      -0.00049,    0.02392     0.00230,    0.03754     0.02862,   -0.05083     0.01154,   -0.03000     0.14591,    0.36222    -0.18106,   -0.48195
  10      -0.01339,    0.01634     0.00971,    0.00387    -0.01641,    0.00730    -0.01384,   -0.02548     0.14408,    0.12249    -0.18689,   -0.11669

                     7                       8                       9                      10  
       ----------------------- ----------------------- ----------------------- -----------------------
   1       0.01226,   -0.01078    -0.00656,    0.00033    -0.01084,   -0.00775    -0.00609,   -0.01794
   2       0.04452,    0.03097    -0.02351,   -0.03934    -0.03226,    0.06980    -0.00834,   -0.00452
   3       0.03617,   -0.05622    -0.00502,    0.03259    -0.03945,    0.00391     0.00572,    0.02511
   4      -0.01926,    0.08094    -0.01742,    0.02607    -0.01756,    0.02145    -0.00403,   -0.02987
   5       0.44491,   -0.29374     0.40150,   -0.27776     0.04548,   -0.05538     0.05231,    0.03368
   6       0.12853,   -0.29825     0.20923,   -0.46632     0.16885,   -0.32379     0.03841,   -0.03748
   7      -0.37092,    0.18189    -0.05797,    0.01173     0.75780,   -0.33889     0.00168,   -0.02157
   8      -0.14741,    0.45231     0.14366,   -0.41543    -0.11372,    0.38616     0.02312,   -0.01846
   9       0.15178,    0.37098    -0.13367,   -0.44780    -0.03585,    0.01234    -0.18186,   -0.40307
  10       0.14012,    0.13570    -0.25861,   -0.11921    -0.02138,   -0.00533     0.77927,    0.43253

                     WFN1 Final Alpha Natural Orbital Analysis
                     -----------------------------------------

 Vector    1  Occ=9.335329D-01  E= 0.000000D+00
              MO Center=  6.3D-07, -1.8D-05,  2.0D-04, r^2= 1.6D+00
   Bfn.  Coefficient  Atom+Function         Bfn.  Coefficient  Atom+Function  
  ----- ------------  ---------------      ----- ------------  ---------------
     2     -0.453605  1 H  s                  7     -0.453670  2 H  s          
     1     -0.227743  1 H  s                  6     -0.227865  2 H  s          

 Vector    2  Occ=6.042695D-02  E= 0.000000D+00
              MO Center=  4.1D-05,  1.8D-04, -5.7D-04, r^2= 1.9D+00
   Bfn.  Coefficient  Atom+Function         Bfn.  Coefficient  Atom+Function  
  ----- ------------  ---------------      ----- ------------  ---------------
     2      0.592396  1 H  s                  7     -0.592183  2 H  s          
     1      0.303452  1 H  s                  6     -0.303500  2 H  s          

 Vector    3  Occ=1.611533D-03  E= 0.000000D+00
              MO Center= -1.9D-03, -2.5D-03,  1.2D-03, r^2= 2.3D+00
   Bfn.  Coefficient  Atom+Function         Bfn.  Coefficient  Atom+Function  
  ----- ------------  ---------------      ----- ------------  ---------------
     2      0.989592  1 H  s                  7     -0.989040  2 H  s          
     1     -0.876362  1 H  s                  6      0.874554  2 H  s          
    10     -0.145425  2 H  pz                 5     -0.134404  1 H  pz         

 Vector    4  Occ=1.184836D-03  E= 0.000000D+00
              MO Center= -1.6D-03, -5.8D-03,  2.8D-03, r^2= 1.7D+00
   Bfn.  Coefficient  Atom+Function         Bfn.  Coefficient  Atom+Function  
  ----- ------------  ---------------      ----- ------------  ---------------
     6     -0.871816  2 H  s                  1     -0.858731  1 H  s          
     7      0.663253  2 H  s                  2      0.642041  1 H  s          
     5     -0.291365  1 H  pz                10      0.246381  2 H  pz         
     9      0.031181  2 H  py         

 Vector    5  Occ=6.661297D-04  E= 0.000000D+00
              MO Center=  3.1D-03,  2.0D-03, -4.3D-03, r^2= 1.4D+00
   Bfn.  Coefficient  Atom+Function         Bfn.  Coefficient  Atom+Function  
  ----- ------------  ---------------      ----- ------------  ---------------
     5     -0.652578  1 H  pz                10      0.647778  2 H  pz         
     6      0.314925  2 H  s                  1      0.304716  1 H  s          
     7     -0.188717  2 H  s                  2     -0.178382  1 H  s          
     4      0.035452  1 H  py                 3      0.030149  1 H  px         

 Vector    6  Occ=5.341443D-04  E= 0.000000D+00
              MO Center= -1.6D-03,  3.5D-03, -1.1D-03, r^2= 1.2D+00
   Bfn.  Coefficient  Atom+Function         Bfn.  Coefficient  Atom+Function  
  ----- ------------  ---------------      ----- ------------  ---------------
     9      0.647158  2 H  py                 4      0.641000  1 H  py         
     3     -0.296740  1 H  px                 8     -0.280997  2 H  px         
     5      0.035395  1 H  pz                 6      0.035445  2 H  s          
     7     -0.034873  2 H  s          

 Vector    7  Occ=5.368754D-04  E= 0.000000D+00
              MO Center=  1.5D-04,  5.3D-08, -7.6D-04, r^2= 1.2D+00
   Bfn.  Coefficient  Atom+Function         Bfn.  Coefficient  Atom+Function  
  ----- ------------  ---------------      ----- ------------  ---------------
     3      0.651065  1 H  px                 8      0.637093  2 H  px         
     9      0.304645  2 H  py                 4      0.270719  1 H  py         
     5      0.048563  1 H  pz         

 Vector    8  Occ=4.881479D-04  E= 0.000000D+00
              MO Center=  2.8D-03,  1.2D-03,  8.0D-04, r^2= 1.2D+00
   Bfn.  Coefficient  Atom+Function         Bfn.  Coefficient  Atom+Function  
  ----- ------------  ---------------      ----- ------------  ---------------
     8     -0.649378  2 H  px                 3      0.641923  1 H  px         
     4      0.294627  1 H  py                 9     -0.280729  2 H  py         
     5      0.034613  1 H  pz                 6     -0.025414  2 H  s          

 Vector    9  Occ=5.723174D-04  E= 0.000000D+00
              MO Center= -6.8D-04,  1.4D-03,  1.2D-03, r^2= 1.2D+00
   Bfn.  Coefficient  Atom+Function         Bfn.  Coefficient  Atom+Function  
  ----- ------------  ---------------      ----- ------------  ---------------
     4     -0.652217  1 H  py                 9      0.638961  2 H  py         
     8     -0.304564  2 H  px                 3      0.272186  1 H  px         

 Vector   10  Occ=4.461332D-04  E= 0.000000D+00
              MO Center= -3.5D-04, -9.9D-05,  4.5D-04, r^2= 1.4D+00
   Bfn.  Coefficient  Atom+Function         Bfn.  Coefficient  Atom+Function  
  ----- ------------  ---------------      ----- ------------  ---------------
    10     -0.716355  2 H  pz                 5     -0.693693  1 H  pz         
     2     -0.403344  1 H  s                  7      0.362033  2 H  s          
     1      0.281230  1 H  s                  6     -0.226952  2 H  s          
     4      0.040140  1 H  py         


                     WFN1 Final Beta Natural Orbital Analysis
                     ----------------------------------------

 Vector    1  Occ=9.335329D-01  E= 0.000000D+00
              MO Center=  6.3D-07, -1.8D-05,  2.0D-04, r^2= 1.6D+00
   Bfn.  Coefficient  Atom+Function         Bfn.  Coefficient  Atom+Function  
  ----- ------------  ---------------      ----- ------------  ---------------
     2     -0.453605  1 H  s                  7     -0.453670  2 H  s          
     1     -0.227743  1 H  s                  6     -0.227865  2 H  s          

 Vector    2  Occ=6.042695D-02  E= 0.000000D+00
              MO Center=  4.1D-05,  1.8D-04, -5.7D-04, r^2= 1.9D+00
   Bfn.  Coefficient  Atom+Function         Bfn.  Coefficient  Atom+Function  
  ----- ------------  ---------------      ----- ------------  ---------------
     2      0.592396  1 H  s                  7     -0.592183  2 H  s          
     1      0.303452  1 H  s                  6     -0.303500  2 H  s          

 Vector    3  Occ=1.611533D-03  E= 0.000000D+00
              MO Center= -1.9D-03, -2.5D-03,  1.2D-03, r^2= 2.3D+00
   Bfn.  Coefficient  Atom+Function         Bfn.  Coefficient  Atom+Function  
  ----- ------------  ---------------      ----- ------------  ---------------
     2      0.989592  1 H  s                  7     -0.989040  2 H  s          
     1     -0.876362  1 H  s                  6      0.874554  2 H  s          
    10     -0.145425  2 H  pz                 5     -0.134404  1 H  pz         

 Vector    4  Occ=1.184836D-03  E= 0.000000D+00
              MO Center= -1.6D-03, -5.8D-03,  2.8D-03, r^2= 1.7D+00
   Bfn.  Coefficient  Atom+Function         Bfn.  Coefficient  Atom+Function  
  ----- ------------  ---------------      ----- ------------  ---------------
     6     -0.871816  2 H  s                  1     -0.858731  1 H  s          
     7      0.663253  2 H  s                  2      0.642041  1 H  s          
     5     -0.291365  1 H  pz                10      0.246381  2 H  pz         
     9      0.031181  2 H  py         

 Vector    5  Occ=6.661297D-04  E= 0.000000D+00
              MO Center=  3.1D-03,  2.0D-03, -4.3D-03, r^2= 1.4D+00
   Bfn.  Coefficient  Atom+Function         Bfn.  Coefficient  Atom+Function  
  ----- ------------  ---------------      ----- ------------  ---------------
     5     -0.652578  1 H  pz                10      0.647778  2 H  pz         
     6      0.314925  2 H  s                  1      0.304716  1 H  s          
     7     -0.188717  2 H  s                  2     -0.178382  1 H  s          
     4      0.035452  1 H  py                 3      0.030149  1 H  px         

 Vector    6  Occ=5.341443D-04  E= 0.000000D+00
              MO Center= -1.6D-03,  3.5D-03, -1.1D-03, r^2= 1.2D+00
   Bfn.  Coefficient  Atom+Function         Bfn.  Coefficient  Atom+Function  
  ----- ------------  ---------------      ----- ------------  ---------------
     9      0.647158  2 H  py                 4      0.641000  1 H  py         
     3     -0.296740  1 H  px                 8     -0.280997  2 H  px         
     5      0.035395  1 H  pz                 6      0.035445  2 H  s          
     7     -0.034873  2 H  s          

 Vector    7  Occ=5.368754D-04  E= 0.000000D+00
              MO Center=  1.5D-04,  5.3D-08, -7.6D-04, r^2= 1.2D+00
   Bfn.  Coefficient  Atom+Function         Bfn.  Coefficient  Atom+Function  
  ----- ------------  ---------------      ----- ------------  ---------------
     3      0.651065  1 H  px                 8      0.637093  2 H  px         
     9      0.304645  2 H  py                 4      0.270719  1 H  py         
     5      0.048563  1 H  pz         

 Vector    8  Occ=4.881479D-04  E= 0.000000D+00
              MO Center=  2.8D-03,  1.2D-03,  8.0D-04, r^2= 1.2D+00
   Bfn.  Coefficient  Atom+Function         Bfn.  Coefficient  Atom+Function  
  ----- ------------  ---------------      ----- ------------  ---------------
     8     -0.649378  2 H  px                 3      0.641923  1 H  px         
     4      0.294627  1 H  py                 9     -0.280729  2 H  py         
     5      0.034613  1 H  pz                 6     -0.025414  2 H  s          

 Vector    9  Occ=5.723174D-04  E= 0.000000D+00
              MO Center= -6.8D-04,  1.4D-03,  1.2D-03, r^2= 1.2D+00
   Bfn.  Coefficient  Atom+Function         Bfn.  Coefficient  Atom+Function  
  ----- ------------  ---------------      ----- ------------  ---------------
     4     -0.652217  1 H  py                 9      0.638961  2 H  py         
     8     -0.304564  2 H  px                 3      0.272186  1 H  px         

 Vector   10  Occ=4.461332D-04  E= 0.000000D+00
              MO Center= -3.5D-04, -9.9D-05,  4.5D-04, r^2= 1.4D+00
   Bfn.  Coefficient  Atom+Function         Bfn.  Coefficient  Atom+Function  
  ----- ------------  ---------------      ----- ------------  ---------------
    10     -0.716355  2 H  pz                 5     -0.693693  1 H  pz         
     2     -0.403344  1 H  s                  7      0.362033  2 H  s          
     1      0.281230  1 H  s                  6     -0.226952  2 H  s          
     4      0.040140  1 H  py         


 Task  times  cpu:     2876.7s     wall:     3347.8s
 Summary of allocated global arrays
-----------------------------------
  No active global arrays



                         GA Statistics for process    0
                         ------------------------------

       create   destroy   get      put      acc     scatter   gather  read&inc
calls:   44       44     1.03e+09 4.43e+05 5.89e+05    0        0       11     
number of processes/call 1.00e+00 1.00e+00 1.00e+00 0.00e+00 0.00e+00
bytes total:             8.26e+11 4.71e+08 5.89e+08 0.00e+00 0.00e+00 8.80e+01
bytes remote:            0.00e+00 0.00e+00 0.00e+00 0.00e+00 0.00e+00 0.00e+00
Max memory consumed for GA by this process: 268000 bytes
MA_summarize_allocated_blocks: starting scan ...
MA_summarize_allocated_blocks: scan completed: 0 heap blocks, 0 stack blocks
MA usage statistics:

	allocation statistics:
					      heap	     stack
					      ----	     -----
	current number of blocks	         0	         0
	maximum number of blocks	        19	        17
	current total bytes		         0	         0
	maximum total bytes		   3205432	  22508664
	maximum total K-bytes		      3206	     22509
	maximum total M-bytes		         4	        23


                                NWChem Input Module
                                -------------------





                                     CITATION
                                     --------
                Please cite the following reference when publishing
                           results obtained with NWChem:

                 M. Valiev, E.J. Bylaska, N. Govind, K. Kowalski,
              T.P. Straatsma, H.J.J. van Dam, D. Wang, J. Nieplocha,
                        E. Apra, T.L. Windus, W.A. de Jong
                 "NWChem: a comprehensive and scalable open-source
                  solution for large scale molecular simulations"
                      Comput. Phys. Commun. 181, 1477 (2010)
                           doi:10.1016/j.cpc.2010.04.018

                                      AUTHORS
                                      -------
          E. Apra, E. J. Bylaska, W. A. de Jong, N. Govind, K. Kowalski,
       T. P. Straatsma, M. Valiev, H. J. J. van Dam, D. Wang, T. L. Windus,
        J. Hammond, J. Autschbach, K. Bhaskaran-Nair, J. Brabec, K. Lopata,
    S. A. Fischer, S. Krishnamoorthy, M. Jacquelin, W. Ma, M. Klemm, O. Villa,
      Y. Chen, V. Anisimov, F. Aquino, S. Hirata, M. T. Hackler, V. Konjkov,
      T. Risthaus, M. Malagoli, A. Marenich, A. Otero-de-la-Roza, J. Mullin,
        P. Nichols, R. Peverati, J. Pittner, Y. Zhao, P.-D. Fan, A. Fonari,
       M. Williamson, R. J. Harrison, J. R. Rehr, M. Dupuis, D. Silverstein,
    D. M. A. Smith, J. Nieplocha, V. Tipparaju, M. Krishnan, B. E. Van Kuiken,
        A. Vazquez-Mayagoitia, L. Jensen, M. Swart, Q. Wu, T. Van Voorhis,
     A. A. Auer, M. Nooijen, L. D. Crosby, E. Brown, G. Cisneros, G. I. Fann,
   H. Fruchtl, J. Garza, K. Hirao, R. A. Kendall, J. A. Nichols, K. Tsemekhman,
    K. Wolinski, J. Anchell, D. E. Bernholdt, P. Borowski, T. Clark, D. Clerc,
   H. Dachsel, M. J. O. Deegan, K. Dyall, D. Elwood, E. Glendening, M. Gutowski,
   A. C. Hess, J. Jaffe, B. G. Johnson, J. Ju, R. Kobayashi, R. Kutteh, Z. Lin,
   R. Littlefield, X. Long, B. Meng, T. Nakajima, S. Niu, L. Pollack, M. Rosing,
   K. Glaesemann, G. Sandrone, M. Stave, H. Taylor, G. Thomas, J. H. van Lenthe,
                               A. T. Wong, Z. Zhang.

 Total times  cpu:     2876.7s     wall:     3347.8s
