 argument  1 = input-wf.nw



============================== echo of input deck ==============================
echo
start wfn1_dat
geometry units au noautoz
  H 0 0 -1.19434600000000000000
  H 0 0  1.19434600000000000000
  symmetry cs
end
basis
  H library 6-31g**
end
set wfn1:input_vectors "atomic"
set wfn1:solver "monte-carlo"
set wfn1:print_error F
set wfn1:t_initial 0.1
#set wfn1:corr_expr "wfn1_mx"
set wfn1:corr_expr "wfn1c"
set wfn1:t_bath 0.0
set wfn1:maxit  20000
task wfn1 energy
================================================================================


                                         
                                         


              Northwest Computational Chemistry Package (NWChem) 6.8
              ------------------------------------------------------


                    Environmental Molecular Sciences Laboratory
                       Pacific Northwest National Laboratory
                                Richland, WA 99352

                              Copyright (c) 1994-2015
                       Pacific Northwest National Laboratory
                            Battelle Memorial Institute

             NWChem is an open-source computational chemistry package
                        distributed under the terms of the
                      Educational Community License (ECL) 2.0
             A copy of the license is included with this distribution
                              in the LICENSE.TXT file

                                  ACKNOWLEDGMENT
                                  --------------

            This software and its documentation were developed at the
            EMSL at Pacific Northwest National Laboratory, a multiprogram
            national laboratory, operated for the U.S. Department of Energy
            by Battelle under Contract Number DE-AC05-76RL01830. Support
            for this work was provided by the Department of Energy Office
            of Biological and Environmental Research, Office of Basic
            Energy Sciences, and the Office of Advanced Scientific Computing.


           Job information
           ---------------

    hostname        = erato
    program         = ../../../bin/LINUX64/nwchem
    date            = Mon Mar  1 11:54:57 2021

    compiled        = Sun_Feb_28_18:02:42_2021
    source          = /home/hvandam/nwchem-1-wfn1
    nwchem branch   = Development
    nwchem revision = nwchem_on_git-124-gad72d19fff205e319ffbbf2bca37a04ded6ad57b
    ga revision     = nwchem_on_git-124-gad72d19
    use scalapack   = F
    input           = input-wf.nw
    prefix          = wfn1_dat.
    data base       = ./wfn1_dat.db
    status          = startup
    nproc           =        1
    time left       =     -1s



           Memory information
           ------------------

    heap     =   13107200 doubles =    100.0 Mbytes
    stack    =   13107197 doubles =    100.0 Mbytes
    global   =   26214400 doubles =    200.0 Mbytes (distinct from heap & stack)
    total    =   52428797 doubles =    400.0 Mbytes
    verify   = yes
    hardfail = no 


           Directory information
           ---------------------

  0 permanent = .
  0 scratch   = .




                                NWChem Input Module
                                -------------------


 Turning off AUTOSYM since
 SYMMETRY directive was detected!



                             Geometry "geometry" -> ""
                             -------------------------

 Output coordinates in a.u. (scale by  1.000000000 to convert to a.u.)

  No.       Tag          Charge          X              Y              Z
 ---- ---------------- ---------- -------------- -------------- --------------
    1 H                    1.0000     0.00000000     0.00000000    -1.19434600
    2 H                    1.0000     0.00000000     0.00000000     1.19434600

      Atomic Mass 
      ----------- 

      H                  1.007825


 Effective nuclear repulsion energy (a.u.)       0.4186391548

            Nuclear Dipole moment (a.u.) 
            ----------------------------
        X                 Y               Z
 ---------------- ---------------- ----------------
     0.0000000000     0.0000000000     0.0000000000

      Symmetry information
      --------------------

 Group name             Cs        
 Group number              2
 Group order               2
 No. of unique centers     1

      Symmetry unique atoms

     1


            XYZ format geometry
            -------------------
     2
 geometry
 H                     0.00000000     0.00000000    -0.63202073
 H                     0.00000000     0.00000000     0.63202073

                      Basis "ao basis" -> "" (cartesian)
                      -----
  H (Hydrogen)
  ------------
            Exponent  Coefficients 
       -------------- ---------------------------------------------------------
  1 S  1.87311370E+01  0.033495
  1 S  2.82539370E+00  0.234727
  1 S  6.40121700E-01  0.813757

  2 S  1.61277800E-01  1.000000

  3 P  1.10000000E+00  1.000000



 Summary of "ao basis" -> "" (cartesian)
 ------------------------------------------------------------------------------
       Tag                 Description            Shells   Functions and Types
 ---------------- ------------------------------  ------  ---------------------
 H                          6-31g**                  3        5   2s1p



                                NWChem WFN1 Module
                                ------------------



          No. of electrons :     2
           Alpha electrons :     1
            Beta electrons :     1
          Charge           :     0
          Spin multiplicity:     1

 HvD: wfn1_inpdft
 HvD: nquad_task =                     1
 HvD: iangquad   =                     0
 HvD: gridtype   = user      
 HvD: leb        =  T
 HvD: radgrid    = murakn    
 HvD: trunc_neigh=  T
 HvD: lssw       =  T
 HvD: whichssw   = erf1    
 HvD: mxnrad     =                     0
 HvD: mxnang     =                     0
 HVD: wfn1: movecs_in  = atomic                                                                                                                                                                                                                                                          
 HVD: wfn1: movecs_out = ./wfn1_dat.movecs                                                                                                                                                                                                                                               

      Superposition of Atomic Density Guess
      -------------------------------------

 Sum of atomic energies:          -0.99646508

      Non-variational initial energy
      ------------------------------

 Total energy =      -0.757526
 1-e energy   =      -1.812630
 2-e energy   =       0.636465
 HOMO         =      -0.391334
 LUMO         =       0.027379

 iteration              energy           error
 ---------              ------           -----
         0         -1.04402700        0.200000
         1         -1.04437895        0.200000
         2         -1.04504213        0.200000
         3         -1.04504788        0.200000
         4         -1.04532499        0.171449
         5         -1.04535510        0.158740
         6         -1.04555980        0.136079
         7         -1.04563344        0.136079
         8         -1.04658857        0.136079
         9         -1.04675594        0.125992
        10         -1.04680938        0.116653
        11         -1.04724562        0.100000
        12         -1.04739432        0.085724
        13         -1.04740499        0.079370
        14         -1.04748608        0.079370
        15         -1.04781132        0.079370
        16         -1.04791303        0.062996
        17         -1.04794783        0.050000
        18         -1.04796596        0.029163
        19         -1.04796907        0.027001
        20         -1.04798456        0.025000
        21         -1.04806518        0.019843
        22         -1.04809531        0.018372
        23         -1.04819198        0.014582
        24         -1.04821454        0.012500
        25         -1.04825100        0.011573
        26         -1.04830850        0.008505
        27         -1.04832123        0.007875
        28         -1.04832133        0.004961
        29         -1.04834079        0.003645
        30         -1.04834501        0.003645
        31         -1.04834616        0.003375
        32         -1.04838158        0.002893
        33         -1.04838160        0.002679
        34         -1.04839722        0.002480
        35         -1.04843484        0.002296
        36         -1.04845555        0.001823
        37         -1.04845797        0.000574
        38         -1.04845960        0.000211
        39         -1.04846102        0.000167
        40         -1.04846189        0.000133
        41         -1.04846281        0.000133
        42         -1.04846324        0.000114
        43         -1.04846467        0.000114
        44         -1.04846595        0.000114
        45         -1.04846708        0.000090
        46         -1.04847152        0.000090
        47         -1.04847222        0.000084
        48         -1.04848051        0.000049
        49         -1.04848155        0.000039
        50         -1.04848193        0.000014
        51         -1.04848546        0.000013
        52         -1.04848629        0.000010
        53         -1.04848636        0.000003
        54         -1.04848656        0.000002
        55         -1.04848676        0.000001
        56         -1.04848693        0.000001
        57         -1.04848702        0.000001

 Reached Convergence

 WFN1                     :
 --------------------------
 Total WFN1 energy  =          -1.0484870226
 1-Electron energy  =          -1.9751745017
 2-Electron energy  =           0.5178895064
 Correlation energy =          -0.0098411821
 DFT XC energy      =           0.0000000000
 Entropy energy     =           0.0000000000
 Nuclear energy     =           0.4186391548

 conventional Hartree-Fock:
 --------------------------
 Total SCF energy  =          -1.0430123117
 2-Electron energy =           0.5233642173

                WFN1 Final Natural orbital energies and occupations
                ---------------------------------------------------

              Alpha       Beta            Alpha       Beta  
            --------    --------        --------    --------
       1      0.0000      0.0000          0.9917      0.9917
       2      0.0000      0.0000          0.0071      0.0071
       3      0.0000      0.0000          0.0004      0.0004
       4      0.0000      0.0000          0.0003      0.0003
       5      0.0000      0.0000          0.0002      0.0002
       6      0.0000      0.0000          0.0001      0.0001
       7      0.0000      0.0000          0.0000      0.0000
       8      0.0000      0.0000          0.0000      0.0000
       9      0.0000      0.0000          0.0001      0.0001
      10      0.0000      0.0000          0.0001      0.0001

             WFN1 Final Correlation function energies and occupations
             --------------------------------------------------------

              Alpha       Beta            Alpha       Beta  
            --------    --------        --------    --------
       1      0.0000      0.0000          1.0000      1.0000
       2      0.0000      0.0000          0.0000      0.0000
       3      0.0000      0.0000          0.0000      0.0000
       4      0.0000      0.0000          0.0000      0.0000
       5      0.0000      0.0000          0.0000      0.0000
       6      0.0000      0.0000          0.0000      0.0000
       7      0.0000      0.0000          0.0000      0.0000
       8      0.0000      0.0000          0.0000      0.0000
       9      0.0000      0.0000          0.0000      0.0000
      10      0.0000      0.0000          0.0000      0.0000

                WFN1 Final alpha-alpha 2-matrix occupation numbers
                --------------------------------------------------


 global array: g_momo1[1:10,1:10],  handle: -990 

            1           2           3           4           5           6  
       ----------- ----------- ----------- ----------- ----------- -----------
   1       0.00000     0.00000     0.00000     0.00000    -0.00000     0.00000
   2       0.00000     0.00000     0.00000     0.00000    -0.00000     0.00000
   3       0.00000     0.00000     0.00000    -0.00000     0.00000     0.00000
   4       0.00000     0.00000    -0.00000     0.00000    -0.00000     0.00000
   5      -0.00000    -0.00000     0.00000     0.00000    -0.00000     0.00000
   6      -0.00000     0.00000     0.00000     0.00000     0.00000     0.00000
   7       0.00000     0.00000     0.00000     0.00000     0.00000     0.00000
   8       0.00000     0.00000    -0.00000     0.00000    -0.00000     0.00000
   9       0.00000     0.00000     0.00000    -0.00000     0.00000     0.00000
  10       0.00000     0.00000     0.00000     0.00000    -0.00000     0.00000

            7           8           9          10  
       ----------- ----------- ----------- -----------
   1       0.00000     0.00000     0.00000     0.00000
   2       0.00000     0.00000     0.00000    -0.00000
   3       0.00000    -0.00000     0.00000    -0.00000
   4       0.00000     0.00000     0.00000    -0.00000
   5       0.00000     0.00000    -0.00000     0.00000
   6       0.00000     0.00000     0.00000     0.00000
   7       0.00000     0.00000     0.00000    -0.00000
   8       0.00000    -0.00000     0.00000     0.00000
   9       0.00000     0.00000     0.00000    -0.00000
  10      -0.00000    -0.00000     0.00000     0.00000

                 WFN1 Final beta-beta 2-matrix occupation numbers
                 ------------------------------------------------


 global array: g_momo2[1:10,1:10],  handle: -989 

            1           2           3           4           5           6  
       ----------- ----------- ----------- ----------- ----------- -----------
   1       0.00000     0.00000     0.00000     0.00000    -0.00000     0.00000
   2       0.00000     0.00000     0.00000     0.00000    -0.00000     0.00000
   3       0.00000     0.00000     0.00000    -0.00000     0.00000     0.00000
   4       0.00000     0.00000    -0.00000     0.00000    -0.00000     0.00000
   5      -0.00000    -0.00000     0.00000     0.00000    -0.00000     0.00000
   6      -0.00000     0.00000     0.00000     0.00000     0.00000     0.00000
   7       0.00000     0.00000     0.00000     0.00000     0.00000     0.00000
   8       0.00000     0.00000    -0.00000     0.00000    -0.00000     0.00000
   9       0.00000     0.00000     0.00000    -0.00000     0.00000     0.00000
  10       0.00000     0.00000     0.00000     0.00000    -0.00000     0.00000

            7           8           9          10  
       ----------- ----------- ----------- -----------
   1       0.00000     0.00000     0.00000     0.00000
   2       0.00000     0.00000     0.00000    -0.00000
   3       0.00000    -0.00000     0.00000    -0.00000
   4       0.00000     0.00000     0.00000    -0.00000
   5       0.00000     0.00000    -0.00000     0.00000
   6       0.00000     0.00000     0.00000     0.00000
   7       0.00000     0.00000     0.00000    -0.00000
   8       0.00000    -0.00000     0.00000     0.00000
   9       0.00000     0.00000     0.00000    -0.00000
  10      -0.00000    -0.00000     0.00000     0.00000

                  WFN1 Final alpha Correlation Function Analysis
                  ----------------------------------------------


 global array: Ca[1:10,1:10],  handle: -977 

                     1                       2                       3                       4                       5                       6  
       ----------------------- ----------------------- ----------------------- ----------------------- ----------------------- -----------------------
   1      -0.94144,    0.32471     0.07563,   -0.03552     0.00666,   -0.01104     0.02406,    0.00867     0.00787,   -0.00568    -0.00899,    0.00628
   2       0.08329,   -0.01324     0.96067,   -0.25721    -0.00747,   -0.01567     0.02310,    0.00797     0.00018,   -0.00274     0.02220,    0.00278
   3      -0.01833,   -0.00644     0.00929,    0.00972    -0.67848,   -0.39115    -0.53331,   -0.31587     0.02184,    0.00422    -0.00685,    0.00703
   4       0.00607,    0.01660    -0.00139,   -0.02874     0.44062,   -0.43545    -0.56145,    0.54312     0.00799,   -0.00584     0.00440,   -0.01336
   5       0.01370,    0.00578     0.00876,   -0.00509     0.01156,    0.01353     0.01319,    0.00450     0.86482,    0.12976    -0.47616,   -0.08284
   6       0.00340,    0.00761    -0.00881,   -0.01227     0.00040,   -0.01152    -0.02429,   -0.00172    -0.24661,   -0.21464    -0.44603,   -0.41855
   7      -0.00000,    0.00000    -0.03613,   -0.00938     0.00139,   -0.02016    -0.01170,    0.01937     0.27188,    0.20407     0.48161,    0.35097
   8      -0.00000,   -0.00000     0.02266,    0.00224    -0.01887,    0.00026     0.01067,    0.02878    -0.03680,    0.07075    -0.08433,    0.10665
   9      -0.00226,    0.00853    -0.02303,   -0.00871    -0.02307,   -0.02226     0.00356,    0.00790     0.06836,   -0.02984     0.12918,   -0.01267
  10       0.00925,   -0.00296     0.00870,   -0.00605    -0.01352,    0.00491     0.03931,   -0.02214     0.00106,    0.01354    -0.00025,    0.03005

                     7                       8                       9                      10  
       ----------------------- ----------------------- ----------------------- -----------------------
   1      -0.00768,    0.00272    -0.00300,   -0.00866     0.00176,    0.00481     0.00798,    0.00264
   2      -0.03226,   -0.00005     0.01171,   -0.02870    -0.01628,   -0.00439    -0.00746,   -0.00959
   3       0.00781,    0.01015    -0.00366,    0.01062     0.02667,    0.00583    -0.00175,    0.01704
   4       0.01886,    0.01765     0.01197,   -0.00572     0.02680,    0.03336     0.04265,    0.01051
   5       0.01496,   -0.00975    -0.00060,   -0.02216    -0.00083,    0.00263     0.00031,   -0.00264
   6      -0.49361,   -0.47128     0.12973,    0.11142    -0.09875,   -0.10828     0.03853,    0.00142
   7      -0.55234,   -0.42308    -0.11286,   -0.07367    -0.12560,   -0.09335    -0.00192,    0.01593
   8       0.06553,   -0.11904    -0.35310,    0.59182    -0.35291,    0.59598    -0.01391,    0.00361
   9       0.16558,   -0.03383     0.67994,   -0.11617    -0.67554,    0.12075    -0.02212,    0.00012
  10       0.02268,    0.01902     0.00334,    0.00013    -0.02154,    0.00044     0.87075,    0.48674

                   WFN1 Final beta Correlation Function Analysis
                   ---------------------------------------------


 global array: Cb[1:10,1:10],  handle: -976 

                     1                       2                       3                       4                       5                       6  
       ----------------------- ----------------------- ----------------------- ----------------------- ----------------------- -----------------------
   1      -0.94144,    0.32471     0.07563,   -0.03552     0.00666,   -0.01104     0.02406,    0.00867     0.00787,   -0.00568    -0.00899,    0.00628
   2       0.08329,   -0.01324     0.96067,   -0.25721    -0.00747,   -0.01567     0.02310,    0.00797     0.00018,   -0.00274     0.02220,    0.00278
   3      -0.01833,   -0.00644     0.00929,    0.00972    -0.67848,   -0.39115    -0.53331,   -0.31587     0.02184,    0.00422    -0.00685,    0.00703
   4       0.00607,    0.01660    -0.00139,   -0.02874     0.44062,   -0.43545    -0.56145,    0.54312     0.00799,   -0.00584     0.00440,   -0.01336
   5       0.01370,    0.00578     0.00876,   -0.00509     0.01156,    0.01353     0.01319,    0.00450     0.86482,    0.12976    -0.47616,   -0.08284
   6       0.00340,    0.00761    -0.00881,   -0.01227     0.00040,   -0.01152    -0.02429,   -0.00172    -0.24661,   -0.21464    -0.44603,   -0.41855
   7      -0.00000,    0.00000    -0.03613,   -0.00938     0.00139,   -0.02016    -0.01170,    0.01937     0.27188,    0.20407     0.48161,    0.35097
   8      -0.00000,   -0.00000     0.02266,    0.00224    -0.01887,    0.00026     0.01067,    0.02878    -0.03680,    0.07075    -0.08433,    0.10665
   9      -0.00226,    0.00853    -0.02303,   -0.00871    -0.02307,   -0.02226     0.00356,    0.00790     0.06836,   -0.02984     0.12918,   -0.01267
  10       0.00925,   -0.00296     0.00870,   -0.00605    -0.01352,    0.00491     0.03931,   -0.02214     0.00106,    0.01354    -0.00025,    0.03005

                     7                       8                       9                      10  
       ----------------------- ----------------------- ----------------------- -----------------------
   1      -0.00768,    0.00272    -0.00300,   -0.00866     0.00176,    0.00481     0.00798,    0.00264
   2      -0.03226,   -0.00005     0.01171,   -0.02870    -0.01628,   -0.00439    -0.00746,   -0.00959
   3       0.00781,    0.01015    -0.00366,    0.01062     0.02667,    0.00583    -0.00175,    0.01704
   4       0.01886,    0.01765     0.01197,   -0.00572     0.02680,    0.03336     0.04265,    0.01051
   5       0.01496,   -0.00975    -0.00060,   -0.02216    -0.00083,    0.00263     0.00031,   -0.00264
   6      -0.49361,   -0.47128     0.12973,    0.11142    -0.09875,   -0.10828     0.03853,    0.00142
   7      -0.55234,   -0.42308    -0.11286,   -0.07367    -0.12560,   -0.09335    -0.00192,    0.01593
   8       0.06553,   -0.11904    -0.35310,    0.59182    -0.35291,    0.59598    -0.01391,    0.00361
   9       0.16558,   -0.03383     0.67994,   -0.11617    -0.67554,    0.12075    -0.02212,    0.00012
  10       0.02268,    0.01902     0.00334,    0.00013    -0.02154,    0.00044     0.87075,    0.48674

                     WFN1 Final Alpha Natural Orbital Analysis
                     -----------------------------------------

 Vector    1  Occ=9.917356D-01  E= 0.000000D+00
              MO Center= -1.7D-03,  1.8D-04,  6.5D-03, r^2= 1.1D+00
   Bfn.  Coefficient  Atom+Function         Bfn.  Coefficient  Atom+Function  
  ----- ------------  ---------------      ----- ------------  ---------------
     7     -0.384197  2 H  s                  2     -0.375144  1 H  s          
     6     -0.256289  2 H  s                  1     -0.254092  1 H  s          

 Vector    2  Occ=7.111744D-03  E= 0.000000D+00
              MO Center= -7.2D-03,  4.9D-03, -1.2D-02, r^2= 1.9D+00
   Bfn.  Coefficient  Atom+Function         Bfn.  Coefficient  Atom+Function  
  ----- ------------  ---------------      ----- ------------  ---------------
     2     -0.929507  1 H  s                  7      0.924562  2 H  s          
     1     -0.208054  1 H  s                  6      0.206692  2 H  s          
     3      0.037100  1 H  px                 5      0.032225  1 H  pz         
    10      0.025009  2 H  pz         

 Vector    3  Occ=3.774463D-04  E= 0.000000D+00
              MO Center=  1.3D-03,  1.0D-03, -1.5D-03, r^2= 1.6D+00
   Bfn.  Coefficient  Atom+Function         Bfn.  Coefficient  Atom+Function  
  ----- ------------  ---------------      ----- ------------  ---------------
     1     -0.903605  1 H  s                  6     -0.895270  2 H  s          
     2      0.691818  1 H  s                  7      0.695063  2 H  s          
     5     -0.110842  1 H  pz                10      0.094956  2 H  pz         

 Vector    4  Occ=3.124026D-04  E= 0.000000D+00
              MO Center= -2.1D-04,  3.0D-04,  7.0D-03, r^2= 1.7D+00
   Bfn.  Coefficient  Atom+Function         Bfn.  Coefficient  Atom+Function  
  ----- ------------  ---------------      ----- ------------  ---------------
     2      1.134131  1 H  s                  7     -1.139792  2 H  s          
     6      0.931409  2 H  s                  1     -0.923079  1 H  s          

 Vector    5  Occ=2.209427D-04  E= 0.000000D+00
              MO Center=  1.4D-05, -1.6D-03, -1.4D-04, r^2= 7.7D-01
   Bfn.  Coefficient  Atom+Function         Bfn.  Coefficient  Atom+Function  
  ----- ------------  ---------------      ----- ------------  ---------------
     5     -0.636453  1 H  pz                10      0.632417  2 H  pz         
     1      0.223740  1 H  s                  6      0.217289  2 H  s          
     2     -0.090892  1 H  s                  7     -0.066583  2 H  s          

 Vector    6  Occ=6.955259D-05  E= 0.000000D+00
              MO Center= -4.5D-05,  4.8D-04, -2.2D-03, r^2= 7.0D-01
   Bfn.  Coefficient  Atom+Function         Bfn.  Coefficient  Atom+Function  
  ----- ------------  ---------------      ----- ------------  ---------------
     4     -0.691088  1 H  py                 9     -0.687593  2 H  py         
     8     -0.066135  2 H  px                 3     -0.048859  1 H  px         
     2     -0.036378  1 H  s          

 Vector    7  Occ=3.756543D-17  E= 0.000000D+00
              MO Center=  2.1D-04,  6.0D-04,  1.6D-02, r^2= 7.0D-01
   Bfn.  Coefficient  Atom+Function         Bfn.  Coefficient  Atom+Function  
  ----- ------------  ---------------      ----- ------------  ---------------
     8     -0.696218  2 H  px                 3     -0.681504  1 H  px         
     9      0.077868  2 H  py                 4      0.038184  1 H  py         
     6      0.036497  2 H  s                  2     -0.027466  1 H  s          

 Vector    8  Occ=2.739882D-16  E= 0.000000D+00
              MO Center= -1.3D-03, -3.0D-03,  5.4D-03, r^2= 7.4D-01
   Bfn.  Coefficient  Atom+Function         Bfn.  Coefficient  Atom+Function  
  ----- ------------  ---------------      ----- ------------  ---------------
     4      0.669368  1 H  py                 9     -0.663843  2 H  py         
     8     -0.293627  2 H  px                 3      0.264740  1 H  px         

 Vector    9  Occ=7.792425D-05  E= 0.000000D+00
              MO Center=  9.5D-03, -3.9D-03, -1.9D-02, r^2= 7.4D-01
   Bfn.  Coefficient  Atom+Function         Bfn.  Coefficient  Atom+Function  
  ----- ------------  ---------------      ----- ------------  ---------------
     3     -0.680614  1 H  px                 8      0.652474  2 H  px         
     9     -0.285596  2 H  py                 4      0.272148  1 H  py         

 Vector   10  Occ=9.434257D-05  E= 0.000000D+00
              MO Center= -5.2D-04,  1.0D-03,  6.3D-04, r^2= 8.2D-01
   Bfn.  Coefficient  Atom+Function         Bfn.  Coefficient  Atom+Function  
  ----- ------------  ---------------      ----- ------------  ---------------
    10     -0.843960  2 H  pz                 5     -0.839161  1 H  pz         
     2     -0.367730  1 H  s                  7      0.353824  2 H  s          
     6      0.038624  2 H  s          


                     WFN1 Final Beta Natural Orbital Analysis
                     ----------------------------------------

 Vector    1  Occ=9.917356D-01  E= 0.000000D+00
              MO Center= -1.7D-03,  1.8D-04,  6.5D-03, r^2= 1.1D+00
   Bfn.  Coefficient  Atom+Function         Bfn.  Coefficient  Atom+Function  
  ----- ------------  ---------------      ----- ------------  ---------------
     7     -0.384197  2 H  s                  2     -0.375144  1 H  s          
     6     -0.256289  2 H  s                  1     -0.254092  1 H  s          

 Vector    2  Occ=7.111744D-03  E= 0.000000D+00
              MO Center= -7.2D-03,  4.9D-03, -1.2D-02, r^2= 1.9D+00
   Bfn.  Coefficient  Atom+Function         Bfn.  Coefficient  Atom+Function  
  ----- ------------  ---------------      ----- ------------  ---------------
     2     -0.929507  1 H  s                  7      0.924562  2 H  s          
     1     -0.208054  1 H  s                  6      0.206692  2 H  s          
     3      0.037100  1 H  px                 5      0.032225  1 H  pz         
    10      0.025009  2 H  pz         

 Vector    3  Occ=3.774463D-04  E= 0.000000D+00
              MO Center=  1.3D-03,  1.0D-03, -1.5D-03, r^2= 1.6D+00
   Bfn.  Coefficient  Atom+Function         Bfn.  Coefficient  Atom+Function  
  ----- ------------  ---------------      ----- ------------  ---------------
     1     -0.903605  1 H  s                  6     -0.895270  2 H  s          
     2      0.691818  1 H  s                  7      0.695063  2 H  s          
     5     -0.110842  1 H  pz                10      0.094956  2 H  pz         

 Vector    4  Occ=3.124026D-04  E= 0.000000D+00
              MO Center= -2.1D-04,  3.0D-04,  7.0D-03, r^2= 1.7D+00
   Bfn.  Coefficient  Atom+Function         Bfn.  Coefficient  Atom+Function  
  ----- ------------  ---------------      ----- ------------  ---------------
     2      1.134131  1 H  s                  7     -1.139792  2 H  s          
     6      0.931409  2 H  s                  1     -0.923079  1 H  s          

 Vector    5  Occ=2.209427D-04  E= 0.000000D+00
              MO Center=  1.4D-05, -1.6D-03, -1.4D-04, r^2= 7.7D-01
   Bfn.  Coefficient  Atom+Function         Bfn.  Coefficient  Atom+Function  
  ----- ------------  ---------------      ----- ------------  ---------------
     5     -0.636453  1 H  pz                10      0.632417  2 H  pz         
     1      0.223740  1 H  s                  6      0.217289  2 H  s          
     2     -0.090892  1 H  s                  7     -0.066583  2 H  s          

 Vector    6  Occ=6.955259D-05  E= 0.000000D+00
              MO Center= -4.5D-05,  4.8D-04, -2.2D-03, r^2= 7.0D-01
   Bfn.  Coefficient  Atom+Function         Bfn.  Coefficient  Atom+Function  
  ----- ------------  ---------------      ----- ------------  ---------------
     4     -0.691088  1 H  py                 9     -0.687593  2 H  py         
     8     -0.066135  2 H  px                 3     -0.048859  1 H  px         
     2     -0.036378  1 H  s          

 Vector    7  Occ=3.756543D-17  E= 0.000000D+00
              MO Center=  2.1D-04,  6.0D-04,  1.6D-02, r^2= 7.0D-01
   Bfn.  Coefficient  Atom+Function         Bfn.  Coefficient  Atom+Function  
  ----- ------------  ---------------      ----- ------------  ---------------
     8     -0.696218  2 H  px                 3     -0.681504  1 H  px         
     9      0.077868  2 H  py                 4      0.038184  1 H  py         
     6      0.036497  2 H  s                  2     -0.027466  1 H  s          

 Vector    8  Occ=2.739882D-16  E= 0.000000D+00
              MO Center= -1.3D-03, -3.0D-03,  5.4D-03, r^2= 7.4D-01
   Bfn.  Coefficient  Atom+Function         Bfn.  Coefficient  Atom+Function  
  ----- ------------  ---------------      ----- ------------  ---------------
     4      0.669368  1 H  py                 9     -0.663843  2 H  py         
     8     -0.293627  2 H  px                 3      0.264740  1 H  px         

 Vector    9  Occ=7.792425D-05  E= 0.000000D+00
              MO Center=  9.5D-03, -3.9D-03, -1.9D-02, r^2= 7.4D-01
   Bfn.  Coefficient  Atom+Function         Bfn.  Coefficient  Atom+Function  
  ----- ------------  ---------------      ----- ------------  ---------------
     3     -0.680614  1 H  px                 8      0.652474  2 H  px         
     9     -0.285596  2 H  py                 4      0.272148  1 H  py         

 Vector   10  Occ=9.434257D-05  E= 0.000000D+00
              MO Center= -5.2D-04,  1.0D-03,  6.3D-04, r^2= 8.2D-01
   Bfn.  Coefficient  Atom+Function         Bfn.  Coefficient  Atom+Function  
  ----- ------------  ---------------      ----- ------------  ---------------
    10     -0.843960  2 H  pz                 5     -0.839161  1 H  pz         
     2     -0.367730  1 H  s                  7      0.353824  2 H  s          
     6      0.038624  2 H  s          


 Task  times  cpu:      188.0s     wall:      221.0s
 Summary of allocated global arrays
-----------------------------------
  No active global arrays



                         GA Statistics for process    0
                         ------------------------------

       create   destroy   get      put      acc     scatter   gather  read&inc
calls:   44       44     5.35e+07 2.45e+04 3.06e+04    0        0       11     
number of processes/call 1.00e+00 1.00e+00 1.00e+00 0.00e+00 0.00e+00
bytes total:             4.28e+10 2.45e+07 3.05e+07 0.00e+00 0.00e+00 8.80e+01
bytes remote:            0.00e+00 0.00e+00 0.00e+00 0.00e+00 0.00e+00 0.00e+00
Max memory consumed for GA by this process: 268000 bytes
MA_summarize_allocated_blocks: starting scan ...
MA_summarize_allocated_blocks: scan completed: 0 heap blocks, 0 stack blocks
MA usage statistics:

	allocation statistics:
					      heap	     stack
					      ----	     -----
	current number of blocks	         0	         0
	maximum number of blocks	        19	        17
	current total bytes		         0	         0
	maximum total bytes		   3205416	  22508616
	maximum total K-bytes		      3206	     22509
	maximum total M-bytes		         4	        23


                                NWChem Input Module
                                -------------------





                                     CITATION
                                     --------
                Please cite the following reference when publishing
                           results obtained with NWChem:

                 M. Valiev, E.J. Bylaska, N. Govind, K. Kowalski,
              T.P. Straatsma, H.J.J. van Dam, D. Wang, J. Nieplocha,
                        E. Apra, T.L. Windus, W.A. de Jong
                 "NWChem: a comprehensive and scalable open-source
                  solution for large scale molecular simulations"
                      Comput. Phys. Commun. 181, 1477 (2010)
                           doi:10.1016/j.cpc.2010.04.018

                                      AUTHORS
                                      -------
          E. Apra, E. J. Bylaska, W. A. de Jong, N. Govind, K. Kowalski,
       T. P. Straatsma, M. Valiev, H. J. J. van Dam, D. Wang, T. L. Windus,
        J. Hammond, J. Autschbach, K. Bhaskaran-Nair, J. Brabec, K. Lopata,
    S. A. Fischer, S. Krishnamoorthy, M. Jacquelin, W. Ma, M. Klemm, O. Villa,
      Y. Chen, V. Anisimov, F. Aquino, S. Hirata, M. T. Hackler, V. Konjkov,
      T. Risthaus, M. Malagoli, A. Marenich, A. Otero-de-la-Roza, J. Mullin,
        P. Nichols, R. Peverati, J. Pittner, Y. Zhao, P.-D. Fan, A. Fonari,
       M. Williamson, R. J. Harrison, J. R. Rehr, M. Dupuis, D. Silverstein,
    D. M. A. Smith, J. Nieplocha, V. Tipparaju, M. Krishnan, B. E. Van Kuiken,
        A. Vazquez-Mayagoitia, L. Jensen, M. Swart, Q. Wu, T. Van Voorhis,
     A. A. Auer, M. Nooijen, L. D. Crosby, E. Brown, G. Cisneros, G. I. Fann,
   H. Fruchtl, J. Garza, K. Hirao, R. A. Kendall, J. A. Nichols, K. Tsemekhman,
    K. Wolinski, J. Anchell, D. E. Bernholdt, P. Borowski, T. Clark, D. Clerc,
   H. Dachsel, M. J. O. Deegan, K. Dyall, D. Elwood, E. Glendening, M. Gutowski,
   A. C. Hess, J. Jaffe, B. G. Johnson, J. Ju, R. Kobayashi, R. Kutteh, Z. Lin,
   R. Littlefield, X. Long, B. Meng, T. Nakajima, S. Niu, L. Pollack, M. Rosing,
   K. Glaesemann, G. Sandrone, M. Stave, H. Taylor, G. Thomas, J. H. van Lenthe,
                               A. T. Wong, Z. Zhang.

 Total times  cpu:      188.0s     wall:      221.0s
