 argument  1 = input-wf.nw



============================== echo of input deck ==============================
echo
start wfn1_dat
geometry units au noautoz
  H 0 0 -1.04434600000000000000
  H 0 0  1.04434600000000000000
  symmetry cs
end
basis
  H library 6-31g**
end
set wfn1:input_vectors "atomic"
set wfn1:solver "monte-carlo"
set wfn1:print_error F
set wfn1:t_initial 0.1
#set wfn1:corr_expr "wfn1_mx"
set wfn1:corr_expr "wfn1c"
set wfn1:t_bath 0.0
set wfn1:maxit  20000
task wfn1 energy
================================================================================


                                         
                                         


              Northwest Computational Chemistry Package (NWChem) 6.8
              ------------------------------------------------------


                    Environmental Molecular Sciences Laboratory
                       Pacific Northwest National Laboratory
                                Richland, WA 99352

                              Copyright (c) 1994-2015
                       Pacific Northwest National Laboratory
                            Battelle Memorial Institute

             NWChem is an open-source computational chemistry package
                        distributed under the terms of the
                      Educational Community License (ECL) 2.0
             A copy of the license is included with this distribution
                              in the LICENSE.TXT file

                                  ACKNOWLEDGMENT
                                  --------------

            This software and its documentation were developed at the
            EMSL at Pacific Northwest National Laboratory, a multiprogram
            national laboratory, operated for the U.S. Department of Energy
            by Battelle under Contract Number DE-AC05-76RL01830. Support
            for this work was provided by the Department of Energy Office
            of Biological and Environmental Research, Office of Basic
            Energy Sciences, and the Office of Advanced Scientific Computing.


           Job information
           ---------------

    hostname        = erato
    program         = ../../../bin/LINUX64/nwchem
    date            = Mon Mar  1 11:45:08 2021

    compiled        = Sun_Feb_28_18:02:42_2021
    source          = /home/hvandam/nwchem-1-wfn1
    nwchem branch   = Development
    nwchem revision = nwchem_on_git-124-gad72d19fff205e319ffbbf2bca37a04ded6ad57b
    ga revision     = nwchem_on_git-124-gad72d19
    use scalapack   = F
    input           = input-wf.nw
    prefix          = wfn1_dat.
    data base       = ./wfn1_dat.db
    status          = startup
    nproc           =        1
    time left       =     -1s



           Memory information
           ------------------

    heap     =   13107198 doubles =    100.0 Mbytes
    stack    =   13107195 doubles =    100.0 Mbytes
    global   =   26214400 doubles =    200.0 Mbytes (distinct from heap & stack)
    total    =   52428793 doubles =    400.0 Mbytes
    verify   = yes
    hardfail = no 


           Directory information
           ---------------------

  0 permanent = .
  0 scratch   = .




                                NWChem Input Module
                                -------------------


 Turning off AUTOSYM since
 SYMMETRY directive was detected!



                             Geometry "geometry" -> ""
                             -------------------------

 Output coordinates in a.u. (scale by  1.000000000 to convert to a.u.)

  No.       Tag          Charge          X              Y              Z
 ---- ---------------- ---------- -------------- -------------- --------------
    1 H                    1.0000     0.00000000     0.00000000    -1.04434600
    2 H                    1.0000     0.00000000     0.00000000     1.04434600

      Atomic Mass 
      ----------- 

      H                  1.007825


 Effective nuclear repulsion energy (a.u.)       0.4787685307

            Nuclear Dipole moment (a.u.) 
            ----------------------------
        X                 Y               Z
 ---------------- ---------------- ----------------
     0.0000000000     0.0000000000     0.0000000000

      Symmetry information
      --------------------

 Group name             Cs        
 Group number              2
 Group order               2
 No. of unique centers     1

      Symmetry unique atoms

     1


            XYZ format geometry
            -------------------
     2
 geometry
 H                     0.00000000     0.00000000    -0.55264414
 H                     0.00000000     0.00000000     0.55264414

                      Basis "ao basis" -> "" (cartesian)
                      -----
  H (Hydrogen)
  ------------
            Exponent  Coefficients 
       -------------- ---------------------------------------------------------
  1 S  1.87311370E+01  0.033495
  1 S  2.82539370E+00  0.234727
  1 S  6.40121700E-01  0.813757

  2 S  1.61277800E-01  1.000000

  3 P  1.10000000E+00  1.000000



 Summary of "ao basis" -> "" (cartesian)
 ------------------------------------------------------------------------------
       Tag                 Description            Shells   Functions and Types
 ---------------- ------------------------------  ------  ---------------------
 H                          6-31g**                  3        5   2s1p



                                NWChem WFN1 Module
                                ------------------



          No. of electrons :     2
           Alpha electrons :     1
            Beta electrons :     1
          Charge           :     0
          Spin multiplicity:     1

 HvD: wfn1_inpdft
 HvD: nquad_task =                     1
 HvD: iangquad   =                     0
 HvD: gridtype   = user      
 HvD: leb        =  T
 HvD: radgrid    = murakn    
 HvD: trunc_neigh=  T
 HvD: lssw       =  T
 HvD: whichssw   = erf1    
 HvD: mxnrad     =                     0
 HvD: mxnang     =                     0
 HVD: wfn1: movecs_in  = atomic                                                                                                                                                                                                                                                          
 HVD: wfn1: movecs_out = ./wfn1_dat.movecs                                                                                                                                                                                                                                               

      Superposition of Atomic Density Guess
      -------------------------------------

 Sum of atomic energies:          -0.99646508

      Non-variational initial energy
      ------------------------------

 Total energy =      -0.785266
 1-e energy   =      -1.911688
 2-e energy   =       0.647654
 HOMO         =      -0.436633
 LUMO         =       0.069742

 iteration              energy           error
 ---------              ------           -----
         0         -1.07788531        0.200000
         1         -1.07816717        0.200000
         2         -1.07853540        0.200000
         3         -1.07876905        0.185175
         4         -1.07893744        0.185175
         5         -1.07899428        0.136079
         6         -1.07915249        0.108006
         7         -1.07954362        0.108006
         8         -1.07969242        0.108006
         9         -1.07979940        0.092587
        10         -1.07994417        0.068040
        11         -1.07995593        0.058326
        12         -1.08020701        0.058326
        13         -1.08023370        0.050000
        14         -1.08025669        0.029163
        15         -1.08028205        0.025000
        16         -1.08030735        0.023147
        17         -1.08038751        0.017010
        18         -1.08039861        0.015749
        19         -1.08041599        0.013501
        20         -1.08041884        0.012500
        21         -1.08043935        0.012500
        22         -1.08049761        0.006250
        23         -1.08050165        0.005358
        24         -1.08051822        0.003125
        25         -1.08052890        0.003125
        26         -1.08054384        0.002893
        27         -1.08055810        0.002126
        28         -1.08056581        0.000723
        29         -1.08057155        0.000532
        30         -1.08058248        0.000335
        31         -1.08058366        0.000228
        32         -1.08058540        0.000228
        33         -1.08058871        0.000090
        34         -1.08059795        0.000078
        35         -1.08059882        0.000062
        36         -1.08059901        0.000010
        37         -1.08059906        0.000010
        38         -1.08059994        0.000010
        39         -1.08060043        0.000007
        40         -1.08060059        0.000006
        41         -1.08060123        0.000006
        42         -1.08060137        0.000005
        43         -1.08060147        0.000005
        44         -1.08060232        0.000004
        45         -1.08060249        0.000003
        46         -1.08060275        0.000002
        47         -1.08060287        0.000002
        48         -1.08060326        0.000001
        49         -1.08060338        0.000001
        50         -1.08060353        0.000001

 Reached Convergence

 WFN1                     :
 --------------------------
 Total WFN1 energy  =          -1.0806035261
 1-Electron energy  =          -2.1054732736
 2-Electron energy  =           0.5516626282
 Correlation energy =          -0.0055614115
 DFT XC energy      =           0.0000000000
 Entropy energy     =           0.0000000000
 Nuclear energy     =           0.4787685307

 conventional Hartree-Fock:
 --------------------------
 Total SCF energy  =          -1.0780489361
 2-Electron energy =           0.5542172182

                WFN1 Final Natural orbital energies and occupations
                ---------------------------------------------------

              Alpha       Beta            Alpha       Beta  
            --------    --------        --------    --------
       1      0.0000      0.0000          0.9964      0.9964
       2      0.0000      0.0000          0.0031      0.0031
       3      0.0000      0.0000          0.0002      0.0002
       4      0.0000      0.0000          0.0002      0.0002
       5      0.0000      0.0000          0.0001      0.0001
       6      0.0000      0.0000          0.0001      0.0001
       7      0.0000      0.0000          0.0000      0.0000
       8      0.0000      0.0000          0.0000      0.0000
       9      0.0000      0.0000          0.0000      0.0000
      10      0.0000      0.0000          0.0000      0.0000

             WFN1 Final Correlation function energies and occupations
             --------------------------------------------------------

              Alpha       Beta            Alpha       Beta  
            --------    --------        --------    --------
       1      0.0000      0.0000          1.0000      1.0000
       2      0.0000      0.0000          0.0000      0.0000
       3      0.0000      0.0000          0.0000      0.0000
       4      0.0000      0.0000          0.0000      0.0000
       5      0.0000      0.0000          0.0000      0.0000
       6      0.0000      0.0000          0.0000      0.0000
       7      0.0000      0.0000          0.0000      0.0000
       8      0.0000      0.0000          0.0000      0.0000
       9      0.0000      0.0000          0.0000      0.0000
      10      0.0000      0.0000          0.0000      0.0000

                WFN1 Final alpha-alpha 2-matrix occupation numbers
                --------------------------------------------------


 global array: g_momo1[1:10,1:10],  handle: -990 

            1           2           3           4           5           6  
       ----------- ----------- ----------- ----------- ----------- -----------
   1       0.00000     0.00000     0.00000    -0.00000     0.00000     0.00000
   2       0.00000     0.00000     0.00000    -0.00000     0.00000     0.00000
   3       0.00000     0.00000     0.00000    -0.00000     0.00000     0.00000
   4       0.00000     0.00000     0.00000    -0.00000     0.00000     0.00000
   5       0.00000     0.00000     0.00000    -0.00000     0.00000    -0.00000
   6       0.00000     0.00000     0.00000     0.00000     0.00000     0.00000
   7       0.00000     0.00000     0.00000    -0.00000     0.00000    -0.00000
   8       0.00000     0.00000     0.00000     0.00000     0.00000    -0.00000
   9      -0.00000     0.00000     0.00000    -0.00000     0.00000     0.00000
  10       0.00000     0.00000     0.00000     0.00000     0.00000     0.00000

            7           8           9          10  
       ----------- ----------- ----------- -----------
   1       0.00000    -0.00000    -0.00000     0.00000
   2       0.00000    -0.00000    -0.00000    -0.00000
   3       0.00000     0.00000    -0.00000     0.00000
   4       0.00000    -0.00000     0.00000     0.00000
   5       0.00000    -0.00000     0.00000     0.00000
   6       0.00000    -0.00000     0.00000     0.00000
   7       0.00000     0.00000    -0.00000    -0.00000
   8       0.00000     0.00000     0.00000     0.00000
   9       0.00000     0.00000    -0.00000    -0.00000
  10       0.00000     0.00000    -0.00000    -0.00000

                 WFN1 Final beta-beta 2-matrix occupation numbers
                 ------------------------------------------------


 global array: g_momo2[1:10,1:10],  handle: -989 

            1           2           3           4           5           6  
       ----------- ----------- ----------- ----------- ----------- -----------
   1       0.00000     0.00000     0.00000    -0.00000     0.00000     0.00000
   2       0.00000     0.00000     0.00000    -0.00000     0.00000     0.00000
   3       0.00000     0.00000     0.00000    -0.00000     0.00000     0.00000
   4       0.00000     0.00000     0.00000    -0.00000     0.00000     0.00000
   5       0.00000     0.00000     0.00000    -0.00000     0.00000    -0.00000
   6       0.00000     0.00000     0.00000     0.00000     0.00000     0.00000
   7       0.00000     0.00000     0.00000    -0.00000     0.00000    -0.00000
   8       0.00000     0.00000     0.00000     0.00000     0.00000    -0.00000
   9      -0.00000     0.00000     0.00000    -0.00000     0.00000     0.00000
  10       0.00000     0.00000     0.00000     0.00000     0.00000     0.00000

            7           8           9          10  
       ----------- ----------- ----------- -----------
   1       0.00000    -0.00000    -0.00000     0.00000
   2       0.00000    -0.00000    -0.00000    -0.00000
   3       0.00000     0.00000    -0.00000     0.00000
   4       0.00000    -0.00000     0.00000     0.00000
   5       0.00000    -0.00000     0.00000     0.00000
   6       0.00000    -0.00000     0.00000     0.00000
   7       0.00000     0.00000    -0.00000    -0.00000
   8       0.00000     0.00000     0.00000     0.00000
   9       0.00000     0.00000    -0.00000    -0.00000
  10       0.00000     0.00000    -0.00000    -0.00000

                  WFN1 Final alpha Correlation Function Analysis
                  ----------------------------------------------


 global array: Ca[1:10,1:10],  handle: -981 

                     1                       2                       3                       4                       5                       6  
       ----------------------- ----------------------- ----------------------- ----------------------- ----------------------- -----------------------
   1      -0.46298,   -0.88431     0.02885,    0.04768    -0.00117,   -0.00883    -0.00613,    0.01520     0.00132,    0.00222     0.00611,    0.00064
   2       0.04948,   -0.02583     0.85374,   -0.51291    -0.04708,    0.01912    -0.02127,    0.00714    -0.01523,   -0.00526    -0.00226,   -0.02014
   3       0.00441,   -0.01166    -0.02992,    0.02225    -0.78561,    0.44956     0.36178,   -0.21351    -0.01471,   -0.01404     0.01592,    0.00862
   4      -0.01306,    0.00206    -0.03495,   -0.02167    -0.31257,   -0.27840    -0.68395,   -0.59459     0.00398,    0.02535    -0.00916,   -0.00545
   5      -0.00150,    0.00746     0.01221,   -0.01386     0.00387,   -0.01246     0.00621,   -0.00865     0.41212,    0.39820     0.50336,    0.48945
   6       0.00626,    0.00487     0.00368,    0.01225    -0.03181,    0.00699     0.00116,    0.02164    -0.31007,    0.48577    -0.00876,    0.01459
   7      -0.00000,   -0.00000    -0.01177,    0.00710    -0.00260,   -0.01242     0.01303,    0.02205    -0.14697,    0.55608     0.18420,   -0.68421
   8      -0.00000,   -0.00000     0.00549,    0.02366    -0.03367,   -0.00709    -0.00188,   -0.00407    -0.01083,    0.05633     0.00791,   -0.05908
   9      -0.00023,   -0.00646    -0.02091,   -0.00486    -0.01329,    0.00260     0.01106,    0.00160     0.04592,   -0.03788    -0.01071,    0.00601
  10      -0.00039,   -0.00600    -0.01093,   -0.00177     0.00340,    0.00793     0.00588,   -0.00407    -0.01779,   -0.01305     0.00921,   -0.00545

                     7                       8                       9                      10  
       ----------------------- ----------------------- ----------------------- -----------------------
   1       0.00854,   -0.00360    -0.00128,    0.00250     0.00105,   -0.00439     0.00318,   -0.00468
   2       0.00198,    0.00576    -0.01379,   -0.01303    -0.02044,    0.01568    -0.00450,    0.01008
   3      -0.00767,    0.02384    -0.01469,   -0.00589    -0.00302,   -0.03115     0.00818,    0.00473
   4      -0.02038,   -0.00506     0.00728,   -0.01379     0.00445,   -0.00889    -0.00648,   -0.00256
   5       0.30374,    0.29180     0.00584,   -0.00750    -0.01809,   -0.00451    -0.00924,    0.00672
   6       0.43082,   -0.68480     0.02303,   -0.06439    -0.03862,    0.07009    -0.01257,   -0.00663
   7      -0.10120,    0.38225     0.02653,   -0.07002     0.00889,   -0.06049    -0.00523,   -0.01952
   8      -0.00083,    0.05055    -0.08870,    0.70780    -0.08761,    0.68718    -0.00451,    0.00703
   9      -0.08315,    0.03093     0.57435,   -0.38710    -0.58984,    0.39960    -0.00860,   -0.01510
  10      -0.00643,    0.00451     0.01169,    0.00722    -0.00172,   -0.01628    -0.89644,    0.44158

                   WFN1 Final beta Correlation Function Analysis
                   ---------------------------------------------


 global array: Cb[1:10,1:10],  handle: -980 

                     1                       2                       3                       4                       5                       6  
       ----------------------- ----------------------- ----------------------- ----------------------- ----------------------- -----------------------
   1      -0.46298,   -0.88431     0.02885,    0.04768    -0.00117,   -0.00883    -0.00613,    0.01520     0.00132,    0.00222     0.00611,    0.00064
   2       0.04948,   -0.02583     0.85374,   -0.51291    -0.04708,    0.01912    -0.02127,    0.00714    -0.01523,   -0.00526    -0.00226,   -0.02014
   3       0.00441,   -0.01166    -0.02992,    0.02225    -0.78561,    0.44956     0.36178,   -0.21351    -0.01471,   -0.01404     0.01592,    0.00862
   4      -0.01306,    0.00206    -0.03495,   -0.02167    -0.31257,   -0.27840    -0.68395,   -0.59459     0.00398,    0.02535    -0.00916,   -0.00545
   5      -0.00150,    0.00746     0.01221,   -0.01386     0.00387,   -0.01246     0.00621,   -0.00865     0.41212,    0.39820     0.50336,    0.48945
   6       0.00626,    0.00487     0.00368,    0.01225    -0.03181,    0.00699     0.00116,    0.02164    -0.31007,    0.48577    -0.00876,    0.01459
   7      -0.00000,   -0.00000    -0.01177,    0.00710    -0.00260,   -0.01242     0.01303,    0.02205    -0.14697,    0.55608     0.18420,   -0.68421
   8      -0.00000,   -0.00000     0.00549,    0.02366    -0.03367,   -0.00709    -0.00188,   -0.00407    -0.01083,    0.05633     0.00791,   -0.05908
   9      -0.00023,   -0.00646    -0.02091,   -0.00486    -0.01329,    0.00260     0.01106,    0.00160     0.04592,   -0.03788    -0.01071,    0.00601
  10      -0.00039,   -0.00600    -0.01093,   -0.00177     0.00340,    0.00793     0.00588,   -0.00407    -0.01779,   -0.01305     0.00921,   -0.00545

                     7                       8                       9                      10  
       ----------------------- ----------------------- ----------------------- -----------------------
   1       0.00854,   -0.00360    -0.00128,    0.00250     0.00105,   -0.00439     0.00318,   -0.00468
   2       0.00198,    0.00576    -0.01379,   -0.01303    -0.02044,    0.01568    -0.00450,    0.01008
   3      -0.00767,    0.02384    -0.01469,   -0.00589    -0.00302,   -0.03115     0.00818,    0.00473
   4      -0.02038,   -0.00506     0.00728,   -0.01379     0.00445,   -0.00889    -0.00648,   -0.00256
   5       0.30374,    0.29180     0.00584,   -0.00750    -0.01809,   -0.00451    -0.00924,    0.00672
   6       0.43082,   -0.68480     0.02303,   -0.06439    -0.03862,    0.07009    -0.01257,   -0.00663
   7      -0.10120,    0.38225     0.02653,   -0.07002     0.00889,   -0.06049    -0.00523,   -0.01952
   8      -0.00083,    0.05055    -0.08870,    0.70780    -0.08761,    0.68718    -0.00451,    0.00703
   9      -0.08315,    0.03093     0.57435,   -0.38710    -0.58984,    0.39960    -0.00860,   -0.01510
  10      -0.00643,    0.00451     0.01169,    0.00722    -0.00172,   -0.01628    -0.89644,    0.44158

                     WFN1 Final Alpha Natural Orbital Analysis
                     -----------------------------------------

 Vector    1  Occ=9.963559D-01  E= 0.000000D+00
              MO Center= -5.2D-04,  1.4D-03,  5.3D-03, r^2= 9.8D-01
   Bfn.  Coefficient  Atom+Function         Bfn.  Coefficient  Atom+Function  
  ----- ------------  ---------------      ----- ------------  ---------------
     7      0.352652  2 H  s                  2      0.346579  1 H  s          
     6      0.276625  2 H  s                  1      0.272140  1 H  s          

 Vector    2  Occ=3.115047D-03  E= 0.000000D+00
              MO Center=  3.4D-03,  2.1D-04, -2.5D-02, r^2= 1.8D+00
   Bfn.  Coefficient  Atom+Function         Bfn.  Coefficient  Atom+Function  
  ----- ------------  ---------------      ----- ------------  ---------------
     2     -1.046734  1 H  s                  7      1.038817  2 H  s          
     1     -0.220714  1 H  s                  6      0.219544  2 H  s          
     5      0.026447  1 H  pz         

 Vector    3  Occ=1.554910D-04  E= 0.000000D+00
              MO Center=  6.0D-05, -7.3D-04,  3.6D-03, r^2= 1.6D+00
   Bfn.  Coefficient  Atom+Function         Bfn.  Coefficient  Atom+Function  
  ----- ------------  ---------------      ----- ------------  ---------------
     1      0.859697  1 H  s                  6      0.850066  2 H  s          
     7     -0.695746  2 H  s                  2     -0.680236  1 H  s          
     5      0.112987  1 H  pz                10     -0.100577  2 H  pz         

 Vector    4  Occ=1.747213D-04  E= 0.000000D+00
              MO Center= -2.1D-03, -9.4D-04,  6.8D-03, r^2= 1.7D+00
   Bfn.  Coefficient  Atom+Function         Bfn.  Coefficient  Atom+Function  
  ----- ------------  ---------------      ----- ------------  ---------------
     2      1.243386  1 H  s                  7     -1.248776  2 H  s          
     6      0.932077  2 H  s                  1     -0.925099  1 H  s          
    10      0.093285  2 H  pz                 5      0.084508  1 H  pz         

 Vector    5  Occ=5.789507D-05  E= 0.000000D+00
              MO Center=  5.7D-04,  2.3D-04,  1.3D-02, r^2= 6.9D-01
   Bfn.  Coefficient  Atom+Function         Bfn.  Coefficient  Atom+Function  
  ----- ------------  ---------------      ----- ------------  ---------------
    10     -0.614231  2 H  pz                 5      0.607240  1 H  pz         
     1     -0.307587  1 H  s                  6     -0.300488  2 H  s          
     2      0.167331  1 H  s                  7      0.108774  2 H  s          
     3     -0.026606  1 H  px         

 Vector    6  Occ=6.298073D-05  E= 0.000000D+00
              MO Center= -1.1D-04, -1.1D-03,  5.4D-03, r^2= 6.0D-01
   Bfn.  Coefficient  Atom+Function         Bfn.  Coefficient  Atom+Function  
  ----- ------------  ---------------      ----- ------------  ---------------
     9      0.680106  2 H  py                 4      0.673326  1 H  py         

 Vector    7  Occ=3.992747D-17  E= 0.000000D+00
              MO Center= -2.9D-04,  2.1D-05, -1.6D-02, r^2= 6.0D-01
   Bfn.  Coefficient  Atom+Function         Bfn.  Coefficient  Atom+Function  
  ----- ------------  ---------------      ----- ------------  ---------------
     3     -0.687023  1 H  px                 8     -0.666354  2 H  px         

 Vector    8  Occ=4.111736D-16  E= 0.000000D+00
              MO Center= -1.1D-04, -4.7D-04, -7.5D-03, r^2= 6.5D-01
   Bfn.  Coefficient  Atom+Function         Bfn.  Coefficient  Atom+Function  
  ----- ------------  ---------------      ----- ------------  ---------------
     4      0.725775  1 H  py                 9     -0.715782  2 H  py         
     8     -0.173882  2 H  px                 3      0.172732  1 H  px         

 Vector    9  Occ=4.178467D-05  E= 0.000000D+00
              MO Center= -8.4D-04,  2.1D-04,  1.9D-02, r^2= 6.5D-01
   Bfn.  Coefficient  Atom+Function         Bfn.  Coefficient  Atom+Function  
  ----- ------------  ---------------      ----- ------------  ---------------
     8      0.730277  2 H  px                 3     -0.711046  1 H  px         
     9     -0.181778  2 H  py                 4      0.165427  1 H  py         

 Vector   10  Occ=3.614096D-05  E= 0.000000D+00
              MO Center= -1.1D-04,  1.1D-03, -5.2D-03, r^2= 7.0D-01
   Bfn.  Coefficient  Atom+Function         Bfn.  Coefficient  Atom+Function  
  ----- ------------  ---------------      ----- ------------  ---------------
     5     -0.948599  1 H  pz                10     -0.944717  2 H  pz         
     2     -0.310096  1 H  s                  7      0.298630  2 H  s          
     6      0.227930  2 H  s                  1     -0.214216  1 H  s          


                     WFN1 Final Beta Natural Orbital Analysis
                     ----------------------------------------

 Vector    1  Occ=9.963559D-01  E= 0.000000D+00
              MO Center= -5.2D-04,  1.4D-03,  5.3D-03, r^2= 9.8D-01
   Bfn.  Coefficient  Atom+Function         Bfn.  Coefficient  Atom+Function  
  ----- ------------  ---------------      ----- ------------  ---------------
     7      0.352652  2 H  s                  2      0.346579  1 H  s          
     6      0.276625  2 H  s                  1      0.272140  1 H  s          

 Vector    2  Occ=3.115047D-03  E= 0.000000D+00
              MO Center=  3.4D-03,  2.1D-04, -2.5D-02, r^2= 1.8D+00
   Bfn.  Coefficient  Atom+Function         Bfn.  Coefficient  Atom+Function  
  ----- ------------  ---------------      ----- ------------  ---------------
     2     -1.046734  1 H  s                  7      1.038817  2 H  s          
     1     -0.220714  1 H  s                  6      0.219544  2 H  s          
     5      0.026447  1 H  pz         

 Vector    3  Occ=1.554910D-04  E= 0.000000D+00
              MO Center=  6.0D-05, -7.3D-04,  3.6D-03, r^2= 1.6D+00
   Bfn.  Coefficient  Atom+Function         Bfn.  Coefficient  Atom+Function  
  ----- ------------  ---------------      ----- ------------  ---------------
     1      0.859697  1 H  s                  6      0.850066  2 H  s          
     7     -0.695746  2 H  s                  2     -0.680236  1 H  s          
     5      0.112987  1 H  pz                10     -0.100577  2 H  pz         

 Vector    4  Occ=1.747213D-04  E= 0.000000D+00
              MO Center= -2.1D-03, -9.4D-04,  6.8D-03, r^2= 1.7D+00
   Bfn.  Coefficient  Atom+Function         Bfn.  Coefficient  Atom+Function  
  ----- ------------  ---------------      ----- ------------  ---------------
     2      1.243386  1 H  s                  7     -1.248776  2 H  s          
     6      0.932077  2 H  s                  1     -0.925099  1 H  s          
    10      0.093285  2 H  pz                 5      0.084508  1 H  pz         

 Vector    5  Occ=5.789507D-05  E= 0.000000D+00
              MO Center=  5.7D-04,  2.3D-04,  1.3D-02, r^2= 6.9D-01
   Bfn.  Coefficient  Atom+Function         Bfn.  Coefficient  Atom+Function  
  ----- ------------  ---------------      ----- ------------  ---------------
    10     -0.614231  2 H  pz                 5      0.607240  1 H  pz         
     1     -0.307587  1 H  s                  6     -0.300488  2 H  s          
     2      0.167331  1 H  s                  7      0.108774  2 H  s          
     3     -0.026606  1 H  px         

 Vector    6  Occ=6.298073D-05  E= 0.000000D+00
              MO Center= -1.1D-04, -1.1D-03,  5.4D-03, r^2= 6.0D-01
   Bfn.  Coefficient  Atom+Function         Bfn.  Coefficient  Atom+Function  
  ----- ------------  ---------------      ----- ------------  ---------------
     9      0.680106  2 H  py                 4      0.673326  1 H  py         

 Vector    7  Occ=3.992747D-17  E= 0.000000D+00
              MO Center= -2.9D-04,  2.1D-05, -1.6D-02, r^2= 6.0D-01
   Bfn.  Coefficient  Atom+Function         Bfn.  Coefficient  Atom+Function  
  ----- ------------  ---------------      ----- ------------  ---------------
     3     -0.687023  1 H  px                 8     -0.666354  2 H  px         

 Vector    8  Occ=4.111736D-16  E= 0.000000D+00
              MO Center= -1.1D-04, -4.7D-04, -7.5D-03, r^2= 6.5D-01
   Bfn.  Coefficient  Atom+Function         Bfn.  Coefficient  Atom+Function  
  ----- ------------  ---------------      ----- ------------  ---------------
     4      0.725775  1 H  py                 9     -0.715782  2 H  py         
     8     -0.173882  2 H  px                 3      0.172732  1 H  px         

 Vector    9  Occ=4.178467D-05  E= 0.000000D+00
              MO Center= -8.4D-04,  2.1D-04,  1.9D-02, r^2= 6.5D-01
   Bfn.  Coefficient  Atom+Function         Bfn.  Coefficient  Atom+Function  
  ----- ------------  ---------------      ----- ------------  ---------------
     8      0.730277  2 H  px                 3     -0.711046  1 H  px         
     9     -0.181778  2 H  py                 4      0.165427  1 H  py         

 Vector   10  Occ=3.614096D-05  E= 0.000000D+00
              MO Center= -1.1D-04,  1.1D-03, -5.2D-03, r^2= 7.0D-01
   Bfn.  Coefficient  Atom+Function         Bfn.  Coefficient  Atom+Function  
  ----- ------------  ---------------      ----- ------------  ---------------
     5     -0.948599  1 H  pz                10     -0.944717  2 H  pz         
     2     -0.310096  1 H  s                  7      0.298630  2 H  s          
     6      0.227930  2 H  s                  1     -0.214216  1 H  s          


 Task  times  cpu:      187.2s     wall:      218.1s
 Summary of allocated global arrays
-----------------------------------
  No active global arrays



                         GA Statistics for process    0
                         ------------------------------

       create   destroy   get      put      acc     scatter   gather  read&inc
calls:   44       44     5.35e+07 2.45e+04 3.06e+04    0        0       11     
number of processes/call 1.00e+00 1.00e+00 1.00e+00 0.00e+00 0.00e+00
bytes total:             4.28e+10 2.45e+07 3.05e+07 0.00e+00 0.00e+00 8.80e+01
bytes remote:            0.00e+00 0.00e+00 0.00e+00 0.00e+00 0.00e+00 0.00e+00
Max memory consumed for GA by this process: 268000 bytes
MA_summarize_allocated_blocks: starting scan ...
MA_summarize_allocated_blocks: scan completed: 0 heap blocks, 0 stack blocks
MA usage statistics:

	allocation statistics:
					      heap	     stack
					      ----	     -----
	current number of blocks	         0	         0
	maximum number of blocks	        19	        17
	current total bytes		         0	         0
	maximum total bytes		   3205432	  22508664
	maximum total K-bytes		      3206	     22509
	maximum total M-bytes		         4	        23


                                NWChem Input Module
                                -------------------





                                     CITATION
                                     --------
                Please cite the following reference when publishing
                           results obtained with NWChem:

                 M. Valiev, E.J. Bylaska, N. Govind, K. Kowalski,
              T.P. Straatsma, H.J.J. van Dam, D. Wang, J. Nieplocha,
                        E. Apra, T.L. Windus, W.A. de Jong
                 "NWChem: a comprehensive and scalable open-source
                  solution for large scale molecular simulations"
                      Comput. Phys. Commun. 181, 1477 (2010)
                           doi:10.1016/j.cpc.2010.04.018

                                      AUTHORS
                                      -------
          E. Apra, E. J. Bylaska, W. A. de Jong, N. Govind, K. Kowalski,
       T. P. Straatsma, M. Valiev, H. J. J. van Dam, D. Wang, T. L. Windus,
        J. Hammond, J. Autschbach, K. Bhaskaran-Nair, J. Brabec, K. Lopata,
    S. A. Fischer, S. Krishnamoorthy, M. Jacquelin, W. Ma, M. Klemm, O. Villa,
      Y. Chen, V. Anisimov, F. Aquino, S. Hirata, M. T. Hackler, V. Konjkov,
      T. Risthaus, M. Malagoli, A. Marenich, A. Otero-de-la-Roza, J. Mullin,
        P. Nichols, R. Peverati, J. Pittner, Y. Zhao, P.-D. Fan, A. Fonari,
       M. Williamson, R. J. Harrison, J. R. Rehr, M. Dupuis, D. Silverstein,
    D. M. A. Smith, J. Nieplocha, V. Tipparaju, M. Krishnan, B. E. Van Kuiken,
        A. Vazquez-Mayagoitia, L. Jensen, M. Swart, Q. Wu, T. Van Voorhis,
     A. A. Auer, M. Nooijen, L. D. Crosby, E. Brown, G. Cisneros, G. I. Fann,
   H. Fruchtl, J. Garza, K. Hirao, R. A. Kendall, J. A. Nichols, K. Tsemekhman,
    K. Wolinski, J. Anchell, D. E. Bernholdt, P. Borowski, T. Clark, D. Clerc,
   H. Dachsel, M. J. O. Deegan, K. Dyall, D. Elwood, E. Glendening, M. Gutowski,
   A. C. Hess, J. Jaffe, B. G. Johnson, J. Ju, R. Kobayashi, R. Kutteh, Z. Lin,
   R. Littlefield, X. Long, B. Meng, T. Nakajima, S. Niu, L. Pollack, M. Rosing,
   K. Glaesemann, G. Sandrone, M. Stave, H. Taylor, G. Thomas, J. H. van Lenthe,
                               A. T. Wong, Z. Zhang.

 Total times  cpu:      187.2s     wall:      218.1s
