 argument  1 = input-wf.nw



============================== echo of input deck ==============================
echo
start wfn1_dat
geometry units au noautoz
  H 0 0 -2.29434600000000000000
  H 0 0  2.29434600000000000000
  symmetry cs
end
basis
  H library 6-31g**
end
set wfn1:input_vectors "atomic"
set wfn1:solver "monte-carlo"
set wfn1:print_error F
set wfn1:t_initial 0.1
#set wfn1:corr_expr "wfn1_mx"
set wfn1:corr_expr "wfn1c"
set wfn1:t_bath 0.0
set wfn1:maxit  20000
task wfn1 energy
================================================================================


                                         
                                         


              Northwest Computational Chemistry Package (NWChem) 6.8
              ------------------------------------------------------


                    Environmental Molecular Sciences Laboratory
                       Pacific Northwest National Laboratory
                                Richland, WA 99352

                              Copyright (c) 1994-2015
                       Pacific Northwest National Laboratory
                            Battelle Memorial Institute

             NWChem is an open-source computational chemistry package
                        distributed under the terms of the
                      Educational Community License (ECL) 2.0
             A copy of the license is included with this distribution
                              in the LICENSE.TXT file

                                  ACKNOWLEDGMENT
                                  --------------

            This software and its documentation were developed at the
            EMSL at Pacific Northwest National Laboratory, a multiprogram
            national laboratory, operated for the U.S. Department of Energy
            by Battelle under Contract Number DE-AC05-76RL01830. Support
            for this work was provided by the Department of Energy Office
            of Biological and Environmental Research, Office of Basic
            Energy Sciences, and the Office of Advanced Scientific Computing.


           Job information
           ---------------

    hostname        = erato
    program         = ../../../bin/LINUX64/nwchem
    date            = Tue Mar  2 02:47:43 2021

    compiled        = Sun_Feb_28_18:02:42_2021
    source          = /home/hvandam/nwchem-1-wfn1
    nwchem branch   = Development
    nwchem revision = nwchem_on_git-124-gad72d19fff205e319ffbbf2bca37a04ded6ad57b
    ga revision     = nwchem_on_git-124-gad72d19
    use scalapack   = F
    input           = input-wf.nw
    prefix          = wfn1_dat.
    data base       = ./wfn1_dat.db
    status          = startup
    nproc           =        1
    time left       =     -1s



           Memory information
           ------------------

    heap     =   13107200 doubles =    100.0 Mbytes
    stack    =   13107197 doubles =    100.0 Mbytes
    global   =   26214400 doubles =    200.0 Mbytes (distinct from heap & stack)
    total    =   52428797 doubles =    400.0 Mbytes
    verify   = yes
    hardfail = no 


           Directory information
           ---------------------

  0 permanent = .
  0 scratch   = .




                                NWChem Input Module
                                -------------------


 Turning off AUTOSYM since
 SYMMETRY directive was detected!



                             Geometry "geometry" -> ""
                             -------------------------

 Output coordinates in a.u. (scale by  1.000000000 to convert to a.u.)

  No.       Tag          Charge          X              Y              Z
 ---- ---------------- ---------- -------------- -------------- --------------
    1 H                    1.0000     0.00000000     0.00000000    -2.29434600
    2 H                    1.0000     0.00000000     0.00000000     2.29434600

      Atomic Mass 
      ----------- 

      H                  1.007825


 Effective nuclear repulsion energy (a.u.)       0.2179270258

            Nuclear Dipole moment (a.u.) 
            ----------------------------
        X                 Y               Z
 ---------------- ---------------- ----------------
     0.0000000000     0.0000000000     0.0000000000

      Symmetry information
      --------------------

 Group name             Cs        
 Group number              2
 Group order               2
 No. of unique centers     1

      Symmetry unique atoms

     1


            XYZ format geometry
            -------------------
     2
 geometry
 H                     0.00000000     0.00000000    -1.21411570
 H                     0.00000000     0.00000000     1.21411570

                      Basis "ao basis" -> "" (cartesian)
                      -----
  H (Hydrogen)
  ------------
            Exponent  Coefficients 
       -------------- ---------------------------------------------------------
  1 S  1.87311370E+01  0.033495
  1 S  2.82539370E+00  0.234727
  1 S  6.40121700E-01  0.813757

  2 S  1.61277800E-01  1.000000

  3 P  1.10000000E+00  1.000000



 Summary of "ao basis" -> "" (cartesian)
 ------------------------------------------------------------------------------
       Tag                 Description            Shells   Functions and Types
 ---------------- ------------------------------  ------  ---------------------
 H                          6-31g**                  3        5   2s1p



                                NWChem WFN1 Module
                                ------------------



          No. of electrons :     2
           Alpha electrons :     1
            Beta electrons :     1
          Charge           :     0
          Spin multiplicity:     1

 HvD: wfn1_inpdft
 HvD: nquad_task =                     1
 HvD: iangquad   =                     0
 HvD: gridtype   = user      
 HvD: leb        =  T
 HvD: radgrid    = murakn    
 HvD: trunc_neigh=  T
 HvD: lssw       =  T
 HvD: whichssw   = erf1    
 HvD: mxnrad     =                     0
 HvD: mxnang     =                     0
 HVD: wfn1: movecs_in  = atomic                                                                                                                                                                                                                                                          
 HVD: wfn1: movecs_out = ./wfn1_dat.movecs                                                                                                                                                                                                                                               

      Superposition of Atomic Density Guess
      -------------------------------------

 Sum of atomic energies:          -0.99646508

      Non-variational initial energy
      ------------------------------

 Total energy =      -0.685162
 1-e energy   =      -1.432276
 2-e energy   =       0.529186
 HOMO         =      -0.233658
 LUMO         =      -0.145114

 iteration              energy           error
 ---------              ------           -----
         0         -0.85981216        0.200000
         1         -0.86468473        0.200000
         2         -0.86759620        0.200000
         3         -0.86927588        0.200000
         4         -0.87025037        0.200000
         5         -0.87161851        0.200000
         6         -0.87224259        0.200000
         7         -0.87260848        0.200000
         8         -0.87357574        0.200000
         9         -0.87360617        0.200000
        10         -0.87516770        0.200000
        11         -0.87603862        0.200000
        12         -0.87618558        0.200000
        13         -0.87667367        0.200000
        14         -0.87735720        0.185175
        15         -0.87800978        0.185175
        16         -0.87859665        0.185175
        17         -0.87965264        0.185175
        18         -0.87978717        0.185175
        19         -0.88015561        0.185175
        20         -0.88054879        0.185175
        21         -0.88163961        0.185175
        22         -0.88227461        0.185175
        23         -0.88242780        0.158740
        24         -0.88276545        0.158740
        25         -0.88341551        0.136079
        26         -0.88353795        0.125992
        27         -0.88365169        0.116653
        28         -0.88376832        0.116653
        29         -0.88385412        0.108006
        30         -0.88398785        0.108006
        31         -0.88400340        0.108006
        32         -0.88400425        0.100000
        33         -0.88407742        0.092587
        34         -0.88454909        0.092587
        35         -0.88462994        0.092587
        36         -0.88463133        0.085724
        37         -0.88467026        0.073487
        38         -0.88469085        0.073487
        39         -0.88475617        0.068040
        40         -0.88480790        0.068040
        41         -0.88486073        0.068040
        42         -0.88492925        0.068040
        43         -0.88496900        0.062996
        44         -0.88501175        0.062996
        45         -0.88503335        0.062996
        46         -0.88507029        0.062996
        47         -0.88510426        0.054003
        48         -0.88512663        0.054003
        49         -0.88513475        0.054003
        50         -0.88513677        0.054003
        51         -0.88513827        0.054003
        52         -0.88513834        0.054003
        53         -0.88516057        0.050000
        54         -0.88524263        0.046294
        55         -0.88524726        0.042862
        56         -0.88527750        0.039685
        57         -0.88531880        0.039685
        58         -0.88534115        0.039685
        59         -0.88534301        0.039685
        60         -0.88535519        0.039685
        61         -0.88537995        0.031498
        62         -0.88538671        0.031498
        63         -0.88540433        0.031498
        64         -0.88542822        0.031498
        65         -0.88544738        0.031498
        66         -0.88545608        0.031498
        67         -0.88545796        0.031498
        68         -0.88546339        0.031498
        69         -0.88547991        0.031498
        70         -0.88549199        0.031498
        71         -0.88550087        0.031498
        72         -0.88556165        0.031498
        73         -0.88558548        0.031498
        74         -0.88558775        0.031498
        75         -0.88561400        0.029163
        76         -0.88563497        0.027001
        77         -0.88565262        0.027001
        78         -0.88565997        0.027001
        79         -0.88567638        0.027001
        80         -0.88568080        0.027001
        81         -0.88569154        0.027001
        82         -0.88570166        0.027001
        83         -0.88570221        0.027001
        84         -0.88571081        0.025000
        85         -0.88573389        0.025000
        86         -0.88574389        0.025000
        87         -0.88576639        0.025000
        88         -0.88576716        0.025000
        89         -0.88578774        0.025000
        90         -0.88580398        0.025000
        91         -0.88581853        0.025000
        92         -0.88581887        0.025000
        93         -0.88582241        0.025000
        94         -0.88583177        0.025000
        95         -0.88583670        0.025000
        96         -0.88583716        0.025000
        97         -0.88583989        0.025000
        98         -0.88584245        0.021431
        99         -0.88585361        0.021431
       100         -0.88585511        0.021431
       101         -0.88585596        0.021431
       102         -0.88585773        0.021431
       103         -0.88586127        0.021431
       104         -0.88587902        0.021431
       105         -0.88588987        0.021431
       106         -0.88590968        0.021431
       107         -0.88591891        0.021431
       108         -0.88592529        0.021431
       109         -0.88592959        0.021431
       110         -0.88593509        0.021431
       111         -0.88593904        0.021431
       112         -0.88595212        0.019843
       113         -0.88595738        0.019843
       114         -0.88596025        0.019843
       115         -0.88597641        0.019843
       116         -0.88597668        0.018372
       117         -0.88597870        0.018372
       118         -0.88598486        0.018372
       119         -0.88598493        0.018372
       120         -0.88599336        0.018372
       121         -0.88599715        0.018372
       122         -0.88600867        0.018372
       123         -0.88601648        0.017010
       124         -0.88602131        0.017010
       125         -0.88602431        0.017010
       126         -0.88602840        0.017010
       127         -0.88603285        0.017010
       128         -0.88603769        0.017010
       129         -0.88605273        0.017010
       130         -0.88605384        0.015749
       131         -0.88605486        0.014582
       132         -0.88606091        0.014582
       133         -0.88606387        0.014582
       134         -0.88606964        0.014582
       135         -0.88607014        0.014582
       136         -0.88607232        0.014582
       137         -0.88607272        0.014582
       138         -0.88607676        0.014582
       139         -0.88607715        0.014582
       140         -0.88607850        0.013501
       141         -0.88607992        0.012500
       142         -0.88608068        0.012500
       143         -0.88608148        0.012500
       144         -0.88608357        0.012500
       145         -0.88608609        0.012500
       146         -0.88608809        0.011573
       147         -0.88608970        0.011573
       148         -0.88609009        0.011573
       149         -0.88609280        0.011573
       150         -0.88609748        0.011573
       151         -0.88609797        0.009921
       152         -0.88609879        0.009186
       153         -0.88609979        0.009186
       154         -0.88610175        0.008505
       155         -0.88610339        0.008505
       156         -0.88610592        0.008505
       157         -0.88610759        0.008505
       158         -0.88610826        0.008505
       159         -0.88610853        0.008505
       160         -0.88611061        0.008505
       161         -0.88611064        0.008505
       162         -0.88611237        0.008505
       163         -0.88611324        0.008505
       164         -0.88611444        0.007875
       165         -0.88611450        0.007875
       166         -0.88611591        0.007875
       167         -0.88611742        0.007291
       168         -0.88611779        0.007291
       169         -0.88611787        0.006750
       170         -0.88611951        0.006750
       171         -0.88611979        0.006750
       172         -0.88611988        0.006750
       173         -0.88612075        0.006750
       174         -0.88612089        0.006750
       175         -0.88612222        0.006750
       176         -0.88612320        0.006750
       177         -0.88612459        0.006250
       178         -0.88612503        0.006250
       179         -0.88612558        0.006250
       180         -0.88612605        0.006250
       181         -0.88612696        0.006250
       182         -0.88612838        0.006250
       183         -0.88612886        0.006250
       184         -0.88612886        0.006250
       185         -0.88613032        0.006250
       186         -0.88613092        0.006250
       187         -0.88613166        0.006250
       188         -0.88613350        0.006250
       189         -0.88613426        0.006250
       190         -0.88613512        0.006250
       191         -0.88613604        0.006250
       192         -0.88613674        0.006250
       193         -0.88613772        0.006250
       194         -0.88613784        0.006250
       195         -0.88613825        0.006250
       196         -0.88613854        0.006250
       197         -0.88613869        0.006250
       198         -0.88613995        0.006250
       199         -0.88614061        0.006250
       200         -0.88614115        0.006250
       201         -0.88614165        0.006250
       202         -0.88614191        0.005787
       203         -0.88614226        0.005787
       204         -0.88614273        0.005787
       205         -0.88614299        0.005787
       206         -0.88614314        0.005787
       207         -0.88614342        0.005358
       208         -0.88614345        0.005358
       209         -0.88614386        0.005358
       210         -0.88614462        0.005358
       211         -0.88614507        0.005358
       212         -0.88614552        0.005358
       213         -0.88614589        0.005358
       214         -0.88614618        0.005358
       215         -0.88614764        0.005358
       216         -0.88614846        0.005358
       217         -0.88614868        0.005358
       218         -0.88614910        0.005358
       219         -0.88614945        0.005358
       220         -0.88615031        0.005358
       221         -0.88615055        0.005358
       222         -0.88615152        0.004593
       223         -0.88615153        0.004593
       224         -0.88615201        0.004593
       225         -0.88615226        0.004593
       226         -0.88615228        0.004593
       227         -0.88615271        0.004593
       228         -0.88615303        0.004593
       229         -0.88615334        0.004593
       230         -0.88615337        0.004593
       231         -0.88615426        0.004593
       232         -0.88615443        0.004593
       233         -0.88615499        0.004593
       234         -0.88615515        0.004593
       235         -0.88615553        0.004593
       236         -0.88615571        0.004593
       237         -0.88615619        0.004593
       238         -0.88615627        0.004593
       239         -0.88615631        0.004593
       240         -0.88615666        0.004252
       241         -0.88615707        0.004252
       242         -0.88615711        0.004252
       243         -0.88615756        0.004252
       244         -0.88615800        0.004252
       245         -0.88615821        0.004252
       246         -0.88615899        0.004252
       247         -0.88615930        0.004252
       248         -0.88615943        0.004252
       249         -0.88616022        0.004252
       250         -0.88616028        0.004252
       251         -0.88616038        0.004252
       252         -0.88616077        0.004252
       253         -0.88616125        0.004252
       254         -0.88616224        0.004252
       255         -0.88616277        0.004252
       256         -0.88616327        0.004252
       257         -0.88616400        0.004252
       258         -0.88616421        0.004252
       259         -0.88616446        0.004252
       260         -0.88616538        0.004252
       261         -0.88616603        0.004252
       262         -0.88616606        0.004252
       263         -0.88616686        0.004252
       264         -0.88616770        0.004252
       265         -0.88616783        0.004252
       266         -0.88616805        0.004252
       267         -0.88616814        0.004252
       268         -0.88616864        0.004252
       269         -0.88616869        0.004252
       270         -0.88616912        0.004252
       271         -0.88617117        0.004252
       272         -0.88617151        0.004252
       273         -0.88617194        0.004252
       274         -0.88617311        0.004252
       275         -0.88617317        0.004252
       276         -0.88617358        0.004252
       277         -0.88617385        0.004252
       278         -0.88617435        0.004252
       279         -0.88617441        0.004252
       280         -0.88617568        0.004252
       281         -0.88617686        0.004252
       282         -0.88617714        0.004252
       283         -0.88617716        0.004252
       284         -0.88617745        0.004252
       285         -0.88617774        0.004252
       286         -0.88617804        0.004252
       287         -0.88617840        0.004252
       288         -0.88617863        0.004252
       289         -0.88617906        0.003937
       290         -0.88617925        0.003937
       291         -0.88617957        0.003937
       292         -0.88617970        0.003937
       293         -0.88617978        0.003937
       294         -0.88618057        0.003937
       295         -0.88618072        0.003937
       296         -0.88618104        0.003937
       297         -0.88618164        0.003937
       298         -0.88618178        0.003937
       299         -0.88618222        0.003937
       300         -0.88618260        0.003937
       301         -0.88618269        0.003937
       302         -0.88618327        0.003937
       303         -0.88618361        0.003937
       304         -0.88618471        0.003937
       305         -0.88618475        0.003937
       306         -0.88618496        0.003937
       307         -0.88618519        0.003937
       308         -0.88618558        0.003937
       309         -0.88618572        0.003937
       310         -0.88618635        0.003937
       311         -0.88618753        0.003937
       312         -0.88618802        0.003937
       313         -0.88618892        0.003937
       314         -0.88618919        0.003937
       315         -0.88618956        0.003937
       316         -0.88619004        0.003937
       317         -0.88619018        0.003937
       318         -0.88619083        0.003937
       319         -0.88619125        0.003937
       320         -0.88619254        0.003937
       321         -0.88619263        0.003937
       322         -0.88619343        0.003937
       323         -0.88619446        0.003937
       324         -0.88619535        0.003937
       325         -0.88619605        0.003937
       326         -0.88619653        0.003645
       327         -0.88619692        0.003645
       328         -0.88619753        0.003645
       329         -0.88619840        0.003645
       330         -0.88619894        0.003645
       331         -0.88619911        0.003645
       332         -0.88619932        0.003645
       333         -0.88619950        0.003645
       334         -0.88619959        0.003645
       335         -0.88620033        0.003645
       336         -0.88620054        0.003645
       337         -0.88620113        0.003645
       338         -0.88620121        0.003645
       339         -0.88620141        0.003645
       340         -0.88620190        0.003645
       341         -0.88620218        0.003645
       342         -0.88620227        0.003645
       343         -0.88620232        0.003645
       344         -0.88620263        0.003645
       345         -0.88620308        0.003645
       346         -0.88620374        0.003645
       347         -0.88620384        0.003645
       348         -0.88620388        0.003645
       349         -0.88620392        0.003645
       350         -0.88620458        0.003645
       351         -0.88620497        0.003645
       352         -0.88620584        0.003645
       353         -0.88620626        0.003645
       354         -0.88620656        0.003645
       355         -0.88620689        0.003645
       356         -0.88620697        0.003645
       357         -0.88620700        0.003645
       358         -0.88620741        0.003645
       359         -0.88620786        0.003645
       360         -0.88620861        0.003645
       361         -0.88620894        0.003645
       362         -0.88620953        0.003645
       363         -0.88620968        0.003645
       364         -0.88620976        0.003645
       365         -0.88620993        0.003645
       366         -0.88621037        0.003645
       367         -0.88621043        0.003645
       368         -0.88621062        0.003645
       369         -0.88621081        0.003645
       370         -0.88621104        0.003645
       371         -0.88621107        0.003645
       372         -0.88621119        0.003645
       373         -0.88621124        0.003645
       374         -0.88621142        0.003645
       375         -0.88621188        0.003645
       376         -0.88621214        0.003645
       377         -0.88621239        0.003645
       378         -0.88621303        0.003645
       379         -0.88621313        0.003645
       380         -0.88621371        0.003645
       381         -0.88621436        0.003645
       382         -0.88621450        0.003645
       383         -0.88621476        0.003645
       384         -0.88621496        0.003645
       385         -0.88621507        0.003645
       386         -0.88621554        0.003645
       387         -0.88621554        0.003645
       388         -0.88621693        0.003645
       389         -0.88621779        0.003645
       390         -0.88621788        0.003645
       391         -0.88621811        0.003645
       392         -0.88621819        0.003645
       393         -0.88621845        0.003645
       394         -0.88621856        0.003645
       395         -0.88621881        0.003645
       396         -0.88621883        0.003645
       397         -0.88621915        0.003645
       398         -0.88621971        0.003645
       399         -0.88621994        0.003645
       400         -0.88622025        0.003645
       401         -0.88622032        0.003645
       402         -0.88622147        0.003645
       403         -0.88622154        0.003645
       404         -0.88622195        0.003645
       405         -0.88622206        0.003645
       406         -0.88622234        0.003645
       407         -0.88622240        0.003645
       408         -0.88622306        0.003645
       409         -0.88622339        0.003645
       410         -0.88622348        0.003645
       411         -0.88622349        0.003645
       412         -0.88622384        0.003645
       413         -0.88622417        0.003645
       414         -0.88622495        0.003645
       415         -0.88622517        0.003645
       416         -0.88622549        0.003645
       417         -0.88622563        0.003645
       418         -0.88622592        0.003645
       419         -0.88622597        0.003375
       420         -0.88622638        0.003375
       421         -0.88622650        0.003375
       422         -0.88622711        0.003375
       423         -0.88622741        0.003375
       424         -0.88622782        0.003375
       425         -0.88622825        0.003375
       426         -0.88622839        0.003375
       427         -0.88622839        0.003375
       428         -0.88622840        0.003375
       429         -0.88622873        0.003375
       430         -0.88622917        0.003375
       431         -0.88622935        0.003375
       432         -0.88622961        0.003375
       433         -0.88623019        0.003375
       434         -0.88623038        0.003375
       435         -0.88623051        0.003375
       436         -0.88623080        0.003375
       437         -0.88623091        0.003375
       438         -0.88623114        0.003375
       439         -0.88623171        0.003375
       440         -0.88623206        0.003375
       441         -0.88623214        0.003375
       442         -0.88623273        0.003375
       443         -0.88623285        0.003375
       444         -0.88623323        0.003375
       445         -0.88623406        0.003375
       446         -0.88623429        0.003375
       447         -0.88623444        0.003375
       448         -0.88623445        0.003375
       449         -0.88623539        0.003375
       450         -0.88623564        0.003375
       451         -0.88623579        0.003375
       452         -0.88623581        0.003375
       453         -0.88623625        0.003375
       454         -0.88623628        0.003375
       455         -0.88623653        0.003375
       456         -0.88623658        0.003375
       457         -0.88623663        0.003375
       458         -0.88623700        0.003375
       459         -0.88623738        0.003375
       460         -0.88623776        0.003375
       461         -0.88623841        0.003375
       462         -0.88623842        0.003375
       463         -0.88623853        0.003375
       464         -0.88623871        0.003375
       465         -0.88623886        0.003375
       466         -0.88623910        0.003375
       467         -0.88623916        0.003375
       468         -0.88624083        0.003375
       469         -0.88624105        0.003375
       470         -0.88624173        0.003375
       471         -0.88624209        0.003375
       472         -0.88624229        0.003375
       473         -0.88624286        0.003375
       474         -0.88624298        0.003375
       475         -0.88624347        0.003375
       476         -0.88624427        0.003375
       477         -0.88624437        0.003375
       478         -0.88624498        0.003375
       479         -0.88624553        0.003375
       480         -0.88624560        0.003375
       481         -0.88624613        0.003375
       482         -0.88624672        0.003375
       483         -0.88624673        0.003375
       484         -0.88624711        0.003375
       485         -0.88624752        0.003375
       486         -0.88624801        0.003375
       487         -0.88624825        0.003375
       488         -0.88624902        0.003375
       489         -0.88624945        0.003125
       490         -0.88624967        0.003125
       491         -0.88624989        0.003125
       492         -0.88625004        0.003125
       493         -0.88625030        0.003125
       494         -0.88625078        0.003125
       495         -0.88625097        0.003125
       496         -0.88625121        0.003125
       497         -0.88625201        0.003125
       498         -0.88625256        0.003125
       499         -0.88625322        0.003125
       500         -0.88625343        0.003125
       501         -0.88625367        0.003125
       502         -0.88625374        0.003125
       503         -0.88625408        0.003125
       504         -0.88625412        0.003125
       505         -0.88625417        0.003125
       506         -0.88625483        0.003125
       507         -0.88625538        0.003125
       508         -0.88625545        0.003125
       509         -0.88625586        0.003125
       510         -0.88625588        0.003125
       511         -0.88625591        0.003125
       512         -0.88625596        0.003125
       513         -0.88625648        0.003125
       514         -0.88625693        0.003125
       515         -0.88625696        0.003125
       516         -0.88625701        0.003125
       517         -0.88625706        0.003125
       518         -0.88625730        0.003125
       519         -0.88625746        0.003125
       520         -0.88625772        0.003125
       521         -0.88625780        0.003125
       522         -0.88625799        0.003125
       523         -0.88625840        0.003125
       524         -0.88625868        0.003125
       525         -0.88625925        0.003125
       526         -0.88625956        0.003125
       527         -0.88625972        0.003125
       528         -0.88626006        0.003125
       529         -0.88626012        0.003125
       530         -0.88626107        0.003125
       531         -0.88626112        0.003125
       532         -0.88626163        0.003125
       533         -0.88626173        0.003125
       534         -0.88626192        0.003125
       535         -0.88626199        0.002893
       536         -0.88626201        0.002893
       537         -0.88626241        0.002893
       538         -0.88626286        0.002893
       539         -0.88626294        0.002893
       540         -0.88626324        0.002893
       541         -0.88626374        0.002893
       542         -0.88626388        0.002893
       543         -0.88626410        0.002893
       544         -0.88626448        0.002893
       545         -0.88626477        0.002893
       546         -0.88626488        0.002893
       547         -0.88626507        0.002893
       548         -0.88626546        0.002893
       549         -0.88626549        0.002893
       550         -0.88626593        0.002893
       551         -0.88626619        0.002893
       552         -0.88626619        0.002893
       553         -0.88626648        0.002893
       554         -0.88626672        0.002679
       555         -0.88626693        0.002679
       556         -0.88626697        0.002679
       557         -0.88626737        0.002679
       558         -0.88626754        0.002679
       559         -0.88626765        0.002679
       560         -0.88626770        0.002679
       561         -0.88626810        0.002679
       562         -0.88626846        0.002679
       563         -0.88626886        0.002679
       564         -0.88626894        0.002679
       565         -0.88626895        0.002679
       566         -0.88626896        0.002679
       567         -0.88626908        0.002679
       568         -0.88626965        0.002679
       569         -0.88627008        0.002679
       570         -0.88627015        0.002679
       571         -0.88627033        0.002679
       572         -0.88627084        0.002679
       573         -0.88627201        0.002679
       574         -0.88627234        0.002679
       575         -0.88627236        0.002679
       576         -0.88627313        0.002679
       577         -0.88627344        0.002679
       578         -0.88627387        0.002679
       579         -0.88627444        0.002679
       580         -0.88627479        0.002679
       581         -0.88627497        0.002679
       582         -0.88627515        0.002679
       583         -0.88627538        0.002679
       584         -0.88627554        0.002679
       585         -0.88627570        0.002679
       586         -0.88627601        0.002679
       587         -0.88627605        0.002679
       588         -0.88627661        0.002679
       589         -0.88627689        0.002679
       590         -0.88627727        0.002679
       591         -0.88627788        0.002679
       592         -0.88627816        0.002679
       593         -0.88627884        0.002679
       594         -0.88627920        0.002679
       595         -0.88627984        0.002679
       596         -0.88627988        0.002679
       597         -0.88628033        0.002679
       598         -0.88628041        0.002679
       599         -0.88628065        0.002679
       600         -0.88628083        0.002679
       601         -0.88628113        0.002679
       602         -0.88628146        0.002679
       603         -0.88628170        0.002679
       604         -0.88628188        0.002679
       605         -0.88628273        0.002679
       606         -0.88628290        0.002679
       607         -0.88628303        0.002679
       608         -0.88628320        0.002679
       609         -0.88628358        0.002679
       610         -0.88628415        0.002679
       611         -0.88628422        0.002679
       612         -0.88628467        0.002679
       613         -0.88628486        0.002679
       614         -0.88628492        0.002679
       615         -0.88628511        0.002679
       616         -0.88628534        0.002679
       617         -0.88628565        0.002679
       618         -0.88628570        0.002679
       619         -0.88628584        0.002679
       620         -0.88628643        0.002679
       621         -0.88628696        0.002679
       622         -0.88628734        0.002679
       623         -0.88628773        0.002679
       624         -0.88628773        0.002679
       625         -0.88628797        0.002679
       626         -0.88628800        0.002679
       627         -0.88628810        0.002679
       628         -0.88628854        0.002679
       629         -0.88628887        0.002679
       630         -0.88628914        0.002679
       631         -0.88628959        0.002679
       632         -0.88628989        0.002679
       633         -0.88628989        0.002679
       634         -0.88628992        0.002679
       635         -0.88628998        0.002679
       636         -0.88629037        0.002679
       637         -0.88629040        0.002679
       638         -0.88629067        0.002679
       639         -0.88629112        0.002679
       640         -0.88629114        0.002679
       641         -0.88629115        0.002679
       642         -0.88629129        0.002679
       643         -0.88629143        0.002679
       644         -0.88629228        0.002679
       645         -0.88629237        0.002679
       646         -0.88629304        0.002679
       647         -0.88629325        0.002679
       648         -0.88629369        0.002679
       649         -0.88629436        0.002679
       650         -0.88629438        0.002679
       651         -0.88629457        0.002679
       652         -0.88629488        0.002679
       653         -0.88629545        0.002679
       654         -0.88629577        0.002679
       655         -0.88629620        0.002679
       656         -0.88629638        0.002679
       657         -0.88629688        0.002679
       658         -0.88629732        0.002679
       659         -0.88629736        0.002679
       660         -0.88629736        0.002679
       661         -0.88629764        0.002679
       662         -0.88629775        0.002679
       663         -0.88629829        0.002679
       664         -0.88629829        0.002679
       665         -0.88629859        0.002679
       666         -0.88629863        0.002679
       667         -0.88629889        0.002679
       668         -0.88629913        0.002679
       669         -0.88629933        0.002679
       670         -0.88629944        0.002679
       671         -0.88629966        0.002679
       672         -0.88629968        0.002679
       673         -0.88630040        0.002679
       674         -0.88630042        0.002679
       675         -0.88630049        0.002679
       676         -0.88630062        0.002679
       677         -0.88630073        0.002679
       678         -0.88630079        0.002679
       679         -0.88630101        0.002679
       680         -0.88630165        0.002679
       681         -0.88630230        0.002679
       682         -0.88630264        0.002679
       683         -0.88630281        0.002679
       684         -0.88630285        0.002679
       685         -0.88630286        0.002679
       686         -0.88630385        0.002679
       687         -0.88630398        0.002679
       688         -0.88630407        0.002679
       689         -0.88630473        0.002679
       690         -0.88630475        0.002679
       691         -0.88630500        0.002679
       692         -0.88630517        0.002679
       693         -0.88630536        0.002679
       694         -0.88630556        0.002679
       695         -0.88630600        0.002679
       696         -0.88630632        0.002679
       697         -0.88630704        0.002679
       698         -0.88630727        0.002679
       699         -0.88630751        0.002679
       700         -0.88630775        0.002679
       701         -0.88630820        0.002679
       702         -0.88630828        0.002679
       703         -0.88630836        0.002679
       704         -0.88630867        0.002679
       705         -0.88630873        0.002679
       706         -0.88630879        0.002679
       707         -0.88630881        0.002679
       708         -0.88630917        0.002679
       709         -0.88630969        0.002679
       710         -0.88630982        0.002679
       711         -0.88631039        0.002679
       712         -0.88631052        0.002679
       713         -0.88631101        0.002679
       714         -0.88631108        0.002679
       715         -0.88631131        0.002679
       716         -0.88631174        0.002679
       717         -0.88631223        0.002679
       718         -0.88631249        0.002679
       719         -0.88631259        0.002679
       720         -0.88631279        0.002679
       721         -0.88631319        0.002679
       722         -0.88631335        0.002679
       723         -0.88631341        0.002679
       724         -0.88631345        0.002679
       725         -0.88631400        0.002679
       726         -0.88631402        0.002679
       727         -0.88631417        0.002679
       728         -0.88631438        0.002679
       729         -0.88631448        0.002679
       730         -0.88631459        0.002679
       731         -0.88631529        0.002679
       732         -0.88631536        0.002679
       733         -0.88631548        0.002679
       734         -0.88631612        0.002679
       735         -0.88631629        0.002679
       736         -0.88631644        0.002679
       737         -0.88631646        0.002679
       738         -0.88631671        0.002679
       739         -0.88631710        0.002679
       740         -0.88631729        0.002679
       741         -0.88631788        0.002679
       742         -0.88631806        0.002679
       743         -0.88631838        0.002679
       744         -0.88631851        0.002679
       745         -0.88631851        0.002679
       746         -0.88631859        0.002679
       747         -0.88631885        0.002679
       748         -0.88631920        0.002679
       749         -0.88631920        0.002679
       750         -0.88631925        0.002679
       751         -0.88631932        0.002679
       752         -0.88631938        0.002679
       753         -0.88631969        0.002679
       754         -0.88631969        0.002679
       755         -0.88632023        0.002679
       756         -0.88632024        0.002679
       757         -0.88632095        0.002679
       758         -0.88632107        0.002679
       759         -0.88632135        0.002679
       760         -0.88632147        0.002679
       761         -0.88632162        0.002679
       762         -0.88632206        0.002679
       763         -0.88632212        0.002679
       764         -0.88632218        0.002679
       765         -0.88632267        0.002679
       766         -0.88632285        0.002679
       767         -0.88632303        0.002679
       768         -0.88632357        0.002679
       769         -0.88632411        0.002679
       770         -0.88632415        0.002679
       771         -0.88632437        0.002679
       772         -0.88632444        0.002679
       773         -0.88632482        0.002679
       774         -0.88632526        0.002679
       775         -0.88632540        0.002679
       776         -0.88632591        0.002679
       777         -0.88632642        0.002679
       778         -0.88632643        0.002679
       779         -0.88632707        0.002679
       780         -0.88632717        0.002679
       781         -0.88632736        0.002679
       782         -0.88632739        0.002679
       783         -0.88632748        0.002679
       784         -0.88632755        0.002679
       785         -0.88632763        0.002679
       786         -0.88632772        0.002679
       787         -0.88632775        0.002679
       788         -0.88632777        0.002679
       789         -0.88632790        0.002679
       790         -0.88632819        0.002679
       791         -0.88632822        0.002679
       792         -0.88632870        0.002679
       793         -0.88632913        0.002679
       794         -0.88632983        0.002679
       795         -0.88633003        0.002679
       796         -0.88633016        0.002679
       797         -0.88633021        0.002679
       798         -0.88633041        0.002679
       799         -0.88633109        0.002679
       800         -0.88633140        0.002679
       801         -0.88633176        0.002679
       802         -0.88633214        0.002679
       803         -0.88633254        0.002679
       804         -0.88633262        0.002679
       805         -0.88633278        0.002679
       806         -0.88633315        0.002679
       807         -0.88633324        0.002679
       808         -0.88633325        0.002679
       809         -0.88633327        0.002679
       810         -0.88633331        0.002679
       811         -0.88633341        0.002679
       812         -0.88633360        0.002679
       813         -0.88633391        0.002679
       814         -0.88633425        0.002679
       815         -0.88633457        0.002480
       816         -0.88633531        0.002480
       817         -0.88633549        0.002480
       818         -0.88633551        0.002480
       819         -0.88633553        0.002480
       820         -0.88633584        0.002480
       821         -0.88633601        0.002480
       822         -0.88633693        0.002480
       823         -0.88633696        0.002480
       824         -0.88633761        0.002480
       825         -0.88633762        0.002480
       826         -0.88633796        0.002480
       827         -0.88633830        0.002480
       828         -0.88633855        0.002480
       829         -0.88633866        0.002480
       830         -0.88633908        0.002480
       831         -0.88633994        0.002480
       832         -0.88634007        0.002480
       833         -0.88634066        0.002480
       834         -0.88634087        0.002480
       835         -0.88634185        0.002480
       836         -0.88634225        0.002480
       837         -0.88634243        0.002480
       838         -0.88634281        0.002480
       839         -0.88634292        0.002480
       840         -0.88634297        0.002480
       841         -0.88634355        0.002480
       842         -0.88634367        0.002480
       843         -0.88634368        0.002480
       844         -0.88634392        0.002480
       845         -0.88634402        0.002480
       846         -0.88634407        0.002480
       847         -0.88634462        0.002480
       848         -0.88634464        0.002480
       849         -0.88634466        0.002480
       850         -0.88634526        0.002480
       851         -0.88634547        0.002480
       852         -0.88634565        0.002480
       853         -0.88634579        0.002480
       854         -0.88634591        0.002480
       855         -0.88634596        0.002480
       856         -0.88634647        0.002480
       857         -0.88634668        0.002480
       858         -0.88634697        0.002480
       859         -0.88634751        0.002480
       860         -0.88634759        0.002480
       861         -0.88634791        0.002480
       862         -0.88634835        0.002480
       863         -0.88634865        0.002480
       864         -0.88634876        0.002480
       865         -0.88634894        0.002480
       866         -0.88634910        0.002480
       867         -0.88634926        0.002480
       868         -0.88634954        0.002480
       869         -0.88635034        0.002480
       870         -0.88635037        0.002480
       871         -0.88635069        0.002480
       872         -0.88635083        0.002480
       873         -0.88635098        0.002480
       874         -0.88635160        0.002480
       875         -0.88635178        0.002480
       876         -0.88635265        0.002480
       877         -0.88635339        0.002480
       878         -0.88635386        0.002480
       879         -0.88635436        0.002480
       880         -0.88635473        0.002480
       881         -0.88635513        0.002480
       882         -0.88635569        0.002480
       883         -0.88635594        0.002480
       884         -0.88635652        0.002480
       885         -0.88635670        0.002480
       886         -0.88635675        0.002480
       887         -0.88635696        0.002480
       888         -0.88635730        0.002480
       889         -0.88635754        0.002480
       890         -0.88635755        0.002480
       891         -0.88635762        0.002480
       892         -0.88635786        0.002480
       893         -0.88635802        0.002480
       894         -0.88635820        0.002480
       895         -0.88635823        0.002480
       896         -0.88635838        0.002480
       897         -0.88635875        0.002480
       898         -0.88635903        0.002480
       899         -0.88635929        0.002480
       900         -0.88635994        0.002480
       901         -0.88636044        0.002480
       902         -0.88636049        0.002480
       903         -0.88636131        0.002480
       904         -0.88636147        0.002480
       905         -0.88636152        0.002480
       906         -0.88636222        0.002480
       907         -0.88636233        0.002480
       908         -0.88636286        0.002480
       909         -0.88636295        0.002480
       910         -0.88636310        0.002480
       911         -0.88636327        0.002480
       912         -0.88636379        0.002480
       913         -0.88636391        0.002480
       914         -0.88636409        0.002480
       915         -0.88636417        0.002480
       916         -0.88636428        0.002480
       917         -0.88636432        0.002480
       918         -0.88636438        0.002480
       919         -0.88636446        0.002480
       920         -0.88636477        0.002480
       921         -0.88636494        0.002480
       922         -0.88636515        0.002480
       923         -0.88636530        0.002480
       924         -0.88636554        0.002480
       925         -0.88636600        0.002480
       926         -0.88636615        0.002480
       927         -0.88636657        0.002480
       928         -0.88636708        0.002480
       929         -0.88636729        0.002480
       930         -0.88636784        0.002480
       931         -0.88636818        0.002480
       932         -0.88636836        0.002480
       933         -0.88636899        0.002480
       934         -0.88636899        0.002480
       935         -0.88636903        0.002480
       936         -0.88636969        0.002480
       937         -0.88636971        0.002480
       938         -0.88636982        0.002480
       939         -0.88637039        0.002480
       940         -0.88637067        0.002480
       941         -0.88637108        0.002480
       942         -0.88637127        0.002480
       943         -0.88637147        0.002480
       944         -0.88637155        0.002480
       945         -0.88637170        0.002480
       946         -0.88637173        0.002480
       947         -0.88637180        0.002480
       948         -0.88637212        0.002480
       949         -0.88637297        0.002480
       950         -0.88637351        0.002480
       951         -0.88637368        0.002480
       952         -0.88637417        0.002480
       953         -0.88637460        0.002480
       954         -0.88637495        0.002480
       955         -0.88637508        0.002480
       956         -0.88637536        0.002480
       957         -0.88637557        0.002480
       958         -0.88637605        0.002480
       959         -0.88637639        0.002480
       960         -0.88637641        0.002480
       961         -0.88637670        0.002480
       962         -0.88637725        0.002480
       963         -0.88637748        0.002480
       964         -0.88637754        0.002480
       965         -0.88637821        0.002480
       966         -0.88637832        0.002480
       967         -0.88637839        0.002480
       968         -0.88637880        0.002480
       969         -0.88637893        0.002480
       970         -0.88637906        0.002480
       971         -0.88637960        0.002480
       972         -0.88637973        0.002480
       973         -0.88637993        0.002480
       974         -0.88638013        0.002480
       975         -0.88638013        0.002480
       976         -0.88638021        0.002480
       977         -0.88638064        0.002480
       978         -0.88638064        0.002480
       979         -0.88638067        0.002480
       980         -0.88638098        0.002480
       981         -0.88638133        0.002480
       982         -0.88638165        0.002480
       983         -0.88638243        0.002480
       984         -0.88638283        0.002480
       985         -0.88638295        0.002480
       986         -0.88638318        0.002480
       987         -0.88638346        0.002480
       988         -0.88638363        0.002480
       989         -0.88638366        0.002480
       990         -0.88638378        0.002480
       991         -0.88638397        0.002480
       992         -0.88638434        0.002480
       993         -0.88638462        0.002480
       994         -0.88638475        0.002480
       995         -0.88638495        0.002480
       996         -0.88638542        0.002480
       997         -0.88638564        0.002480
       998         -0.88638578        0.002480
       999         -0.88638588        0.002480
      1000         -0.88638601        0.002480
      1001         -0.88638645        0.002480
      1002         -0.88638670        0.002480
      1003         -0.88638729        0.002480
      1004         -0.88638765        0.002480
      1005         -0.88638795        0.002480
      1006         -0.88638846        0.002480
      1007         -0.88638873        0.002480
      1008         -0.88638931        0.002480
      1009         -0.88638958        0.002480
      1010         -0.88639007        0.002480
      1011         -0.88639024        0.002480
      1012         -0.88639036        0.002480
      1013         -0.88639066        0.002480
      1014         -0.88639076        0.002480
      1015         -0.88639132        0.002480
      1016         -0.88639160        0.002480
      1017         -0.88639177        0.002480
      1018         -0.88639243        0.002480
      1019         -0.88639261        0.002480
      1020         -0.88639277        0.002480
      1021         -0.88639280        0.002480
      1022         -0.88639313        0.002480
      1023         -0.88639340        0.002480
      1024         -0.88639378        0.002480
      1025         -0.88639415        0.002480
      1026         -0.88639454        0.002480
      1027         -0.88639473        0.002480
      1028         -0.88639526        0.002480
      1029         -0.88639584        0.002480
      1030         -0.88639621        0.002480
      1031         -0.88639624        0.002480
      1032         -0.88639633        0.002480
      1033         -0.88639660        0.002480
      1034         -0.88639712        0.002480
      1035         -0.88639728        0.002480
      1036         -0.88639729        0.002480
      1037         -0.88639730        0.002480
      1038         -0.88639768        0.002480
      1039         -0.88639771        0.002480
      1040         -0.88639824        0.002480
      1041         -0.88639863        0.002480
      1042         -0.88639918        0.002480
      1043         -0.88639954        0.002480
      1044         -0.88639957        0.002480
      1045         -0.88639972        0.002480
      1046         -0.88640000        0.002480
      1047         -0.88640071        0.002480
      1048         -0.88640101        0.002480
      1049         -0.88640137        0.002480
      1050         -0.88640143        0.002480
      1051         -0.88640168        0.002480
      1052         -0.88640217        0.002480
      1053         -0.88640257        0.002480
      1054         -0.88640303        0.002480
      1055         -0.88640347        0.002480
      1056         -0.88640378        0.002480
      1057         -0.88640417        0.002480
      1058         -0.88640501        0.002480
      1059         -0.88640520        0.002480
      1060         -0.88640522        0.002480
      1061         -0.88640566        0.002480
      1062         -0.88640588        0.002480
      1063         -0.88640603        0.002480
      1064         -0.88640611        0.002480
      1065         -0.88640638        0.002480
      1066         -0.88640643        0.002480
      1067         -0.88640689        0.002480
      1068         -0.88640717        0.002480
      1069         -0.88640722        0.002480
      1070         -0.88640741        0.002480
      1071         -0.88640749        0.002480
      1072         -0.88640755        0.002480
      1073         -0.88640762        0.002480
      1074         -0.88640807        0.002480
      1075         -0.88640811        0.002480
      1076         -0.88640815        0.002480
      1077         -0.88640845        0.002480
      1078         -0.88640882        0.002480
      1079         -0.88640935        0.002480
      1080         -0.88640974        0.002480
      1081         -0.88640981        0.002480
      1082         -0.88641072        0.002480
      1083         -0.88641092        0.002480
      1084         -0.88641153        0.002480
      1085         -0.88641154        0.002480
      1086         -0.88641169        0.002480
      1087         -0.88641174        0.002480
      1088         -0.88641189        0.002480
      1089         -0.88641218        0.002480
      1090         -0.88641284        0.002480
      1091         -0.88641311        0.002480
      1092         -0.88641314        0.002480
      1093         -0.88641323        0.002480
      1094         -0.88641356        0.002480
      1095         -0.88641371        0.002480
      1096         -0.88641396        0.002480
      1097         -0.88641424        0.002480
      1098         -0.88641480        0.002480
      1099         -0.88641506        0.002480
      1100         -0.88641523        0.002480
      1101         -0.88641542        0.002480
      1102         -0.88641564        0.002480
      1103         -0.88641565        0.002480
      1104         -0.88641634        0.002480
      1105         -0.88641701        0.002480
      1106         -0.88641733        0.002480
      1107         -0.88641757        0.002480
      1108         -0.88641792        0.002480
      1109         -0.88641809        0.002480
      1110         -0.88641823        0.002480
      1111         -0.88641841        0.002480
      1112         -0.88641896        0.002480
      1113         -0.88641906        0.002480
      1114         -0.88641952        0.002480
      1115         -0.88641957        0.002480
      1116         -0.88642013        0.002480
      1117         -0.88642027        0.002480
      1118         -0.88642065        0.002480
      1119         -0.88642078        0.002480
      1120         -0.88642078        0.002480
      1121         -0.88642084        0.002480
      1122         -0.88642109        0.002480
      1123         -0.88642133        0.002480
      1124         -0.88642190        0.002480
      1125         -0.88642233        0.002480
      1126         -0.88642251        0.002480
      1127         -0.88642262        0.002480
      1128         -0.88642319        0.002480
      1129         -0.88642331        0.002480
      1130         -0.88642382        0.002480
      1131         -0.88642402        0.002480
      1132         -0.88642433        0.002480
      1133         -0.88642437        0.002480
      1134         -0.88642466        0.002480
      1135         -0.88642523        0.002480
      1136         -0.88642570        0.002480
      1137         -0.88642581        0.002480
      1138         -0.88642605        0.002480
      1139         -0.88642636        0.002480
      1140         -0.88642681        0.002480
      1141         -0.88642712        0.002480
      1142         -0.88642723        0.002480
      1143         -0.88642778        0.002480
      1144         -0.88642827        0.002480
      1145         -0.88642857        0.002480
      1146         -0.88642872        0.002480
      1147         -0.88642909        0.002480
      1148         -0.88642960        0.002480
      1149         -0.88642961        0.002480
      1150         -0.88643013        0.002480
      1151         -0.88643022        0.002480
      1152         -0.88643100        0.002480
      1153         -0.88643125        0.002480
      1154         -0.88643134        0.002480
      1155         -0.88643189        0.002480
      1156         -0.88643213        0.002480
      1157         -0.88643227        0.002480
      1158         -0.88643242        0.002480
      1159         -0.88643336        0.002480
      1160         -0.88643422        0.002480
      1161         -0.88643435        0.002480
      1162         -0.88643464        0.002480
      1163         -0.88643497        0.002480
      1164         -0.88643559        0.002480
      1165         -0.88643611        0.002480
      1166         -0.88643633        0.002480
      1167         -0.88643638        0.002480
      1168         -0.88643652        0.002480
      1169         -0.88643659        0.002480
      1170         -0.88643665        0.002480
      1171         -0.88643687        0.002480
      1172         -0.88643709        0.002480
      1173         -0.88643711        0.002480
      1174         -0.88643724        0.002480
      1175         -0.88643760        0.002480
      1176         -0.88643809        0.002480
      1177         -0.88643810        0.002480
      1178         -0.88643878        0.002480
      1179         -0.88643945        0.002480
      1180         -0.88643946        0.002480
      1181         -0.88643977        0.002480
      1182         -0.88643987        0.002480
      1183         -0.88644067        0.002480
      1184         -0.88644068        0.002480
      1185         -0.88644073        0.002480
      1186         -0.88644140        0.002480
      1187         -0.88644146        0.002480
      1188         -0.88644234        0.002480
      1189         -0.88644252        0.002480
      1190         -0.88644276        0.002480
      1191         -0.88644373        0.002480
      1192         -0.88644383        0.002480
      1193         -0.88644399        0.002480
      1194         -0.88644409        0.002480
      1195         -0.88644429        0.002480
      1196         -0.88644429        0.002480
      1197         -0.88644482        0.002480
      1198         -0.88644530        0.002480
      1199         -0.88644552        0.002480
      1200         -0.88644628        0.002480
      1201         -0.88644639        0.002480
      1202         -0.88644699        0.002480
      1203         -0.88644709        0.002480
      1204         -0.88644716        0.002480
      1205         -0.88644721        0.002480
      1206         -0.88644728        0.002480
      1207         -0.88644799        0.002480
      1208         -0.88644804        0.002480
      1209         -0.88644809        0.002480
      1210         -0.88644836        0.002480
      1211         -0.88644857        0.002480
      1212         -0.88644890        0.002480
      1213         -0.88644913        0.002480
      1214         -0.88644970        0.002480
      1215         -0.88644997        0.002480
      1216         -0.88645052        0.002480
      1217         -0.88645088        0.002480
      1218         -0.88645093        0.002480
      1219         -0.88645099        0.002480
      1220         -0.88645111        0.002480
      1221         -0.88645136        0.002480
      1222         -0.88645147        0.002480
      1223         -0.88645179        0.002480
      1224         -0.88645209        0.002480
      1225         -0.88645235        0.002480
      1226         -0.88645287        0.002480
      1227         -0.88645397        0.002480
      1228         -0.88645436        0.002480
      1229         -0.88645442        0.002480
      1230         -0.88645473        0.002480
      1231         -0.88645536        0.002480
      1232         -0.88645538        0.002480
      1233         -0.88645572        0.002480
      1234         -0.88645578        0.002480
      1235         -0.88645665        0.002480
      1236         -0.88645699        0.002480
      1237         -0.88645701        0.002480
      1238         -0.88645792        0.002480
      1239         -0.88645863        0.002480
      1240         -0.88645898        0.002480
      1241         -0.88645979        0.002480
      1242         -0.88645984        0.002480
      1243         -0.88645986        0.002480
      1244         -0.88645998        0.002480
      1245         -0.88646086        0.002480
      1246         -0.88646113        0.002480
      1247         -0.88646149        0.002480
      1248         -0.88646152        0.002480
      1249         -0.88646170        0.002480
      1250         -0.88646195        0.002480
      1251         -0.88646259        0.002480
      1252         -0.88646308        0.002480
      1253         -0.88646333        0.002480
      1254         -0.88646370        0.002480
      1255         -0.88646453        0.002480
      1256         -0.88646481        0.002480
      1257         -0.88646487        0.002480
      1258         -0.88646513        0.002480
      1259         -0.88646579        0.002480
      1260         -0.88646600        0.002480
      1261         -0.88646623        0.002480
      1262         -0.88646642        0.002480
      1263         -0.88646695        0.002480
      1264         -0.88646723        0.002480
      1265         -0.88646739        0.002480
      1266         -0.88646817        0.002480
      1267         -0.88646846        0.002480
      1268         -0.88646875        0.002480
      1269         -0.88646919        0.002480
      1270         -0.88646991        0.002480
      1271         -0.88647016        0.002480
      1272         -0.88647029        0.002480
      1273         -0.88647052        0.002480
      1274         -0.88647067        0.002480
      1275         -0.88647078        0.002480
      1276         -0.88647127        0.002480
      1277         -0.88647131        0.002480
      1278         -0.88647132        0.002480
      1279         -0.88647171        0.002480
      1280         -0.88647190        0.002480
      1281         -0.88647203        0.002480
      1282         -0.88647267        0.002480
      1283         -0.88647282        0.002480
      1284         -0.88647316        0.002480
      1285         -0.88647382        0.002480
      1286         -0.88647390        0.002480
      1287         -0.88647422        0.002480
      1288         -0.88647432        0.002480
      1289         -0.88647437        0.002480
      1290         -0.88647457        0.002480
      1291         -0.88647458        0.002480
      1292         -0.88647489        0.002480
      1293         -0.88647549        0.002480
      1294         -0.88647657        0.002480
      1295         -0.88647674        0.002480
      1296         -0.88647686        0.002480
      1297         -0.88647739        0.002480
      1298         -0.88647740        0.002480
      1299         -0.88647784        0.002480
      1300         -0.88647823        0.002480
      1301         -0.88647851        0.002480
      1302         -0.88647896        0.002480
      1303         -0.88647900        0.002480
      1304         -0.88648040        0.002480
      1305         -0.88648056        0.002480
      1306         -0.88648059        0.002480
      1307         -0.88648100        0.002480
      1308         -0.88648102        0.002480
      1309         -0.88648130        0.002480
      1310         -0.88648173        0.002480
      1311         -0.88648231        0.002480
      1312         -0.88648236        0.002480
      1313         -0.88648284        0.002480
      1314         -0.88648292        0.002480
      1315         -0.88648308        0.002480
      1316         -0.88648339        0.002480
      1317         -0.88648399        0.002480
      1318         -0.88648437        0.002480
      1319         -0.88648457        0.002480
      1320         -0.88648500        0.002480
      1321         -0.88648549        0.002480
      1322         -0.88648558        0.002480
      1323         -0.88648606        0.002480
      1324         -0.88648615        0.002480
      1325         -0.88648624        0.002480
      1326         -0.88648645        0.002480
      1327         -0.88648646        0.002480
      1328         -0.88648658        0.002480
      1329         -0.88648686        0.002480
      1330         -0.88648724        0.002480
      1331         -0.88648742        0.002480
      1332         -0.88648761        0.002480
      1333         -0.88648780        0.002480
      1334         -0.88648784        0.002480
      1335         -0.88648805        0.002480
      1336         -0.88648813        0.002480
      1337         -0.88648863        0.002480
      1338         -0.88648905        0.002480
      1339         -0.88648945        0.002480
      1340         -0.88648956        0.002480
      1341         -0.88648965        0.002480
      1342         -0.88649010        0.002480
      1343         -0.88649058        0.002480
      1344         -0.88649070        0.002480
      1345         -0.88649137        0.002480
      1346         -0.88649163        0.002480
      1347         -0.88649240        0.002480
      1348         -0.88649317        0.002480
      1349         -0.88649323        0.002480
      1350         -0.88649333        0.002480
      1351         -0.88649340        0.002480
      1352         -0.88649387        0.002480
      1353         -0.88649445        0.002480
      1354         -0.88649468        0.002480
      1355         -0.88649483        0.002480
      1356         -0.88649513        0.002480
      1357         -0.88649550        0.002480
      1358         -0.88649594        0.002480
      1359         -0.88649688        0.002480
      1360         -0.88649742        0.002480
      1361         -0.88649754        0.002480
      1362         -0.88649802        0.002480
      1363         -0.88649855        0.002480
      1364         -0.88649871        0.002480
      1365         -0.88649920        0.002480
      1366         -0.88649930        0.002480
      1367         -0.88649981        0.002480
      1368         -0.88650037        0.002480
      1369         -0.88650089        0.002480
      1370         -0.88650098        0.002480
      1371         -0.88650139        0.002480
      1372         -0.88650143        0.002480
      1373         -0.88650144        0.002480
      1374         -0.88650159        0.002480
      1375         -0.88650243        0.002480
      1376         -0.88650275        0.002480
      1377         -0.88650364        0.002480
      1378         -0.88650449        0.002480
      1379         -0.88650517        0.002480
      1380         -0.88650566        0.002480
      1381         -0.88650578        0.002480
      1382         -0.88650642        0.002480
      1383         -0.88650682        0.002480
      1384         -0.88650725        0.002480
      1385         -0.88650764        0.002480
      1386         -0.88650793        0.002480
      1387         -0.88650827        0.002480
      1388         -0.88650877        0.002480
      1389         -0.88650878        0.002480
      1390         -0.88650882        0.002480
      1391         -0.88650925        0.002480
      1392         -0.88650985        0.002480
      1393         -0.88651014        0.002480
      1394         -0.88651019        0.002480
      1395         -0.88651107        0.002480
      1396         -0.88651136        0.002480
      1397         -0.88651166        0.002480
      1398         -0.88651193        0.002480
      1399         -0.88651260        0.002480
      1400         -0.88651288        0.002480
      1401         -0.88651328        0.002480
      1402         -0.88651350        0.002480
      1403         -0.88651369        0.002480
      1404         -0.88651418        0.002480
      1405         -0.88651421        0.002480
      1406         -0.88651438        0.002480
      1407         -0.88651458        0.002480
      1408         -0.88651504        0.002480
      1409         -0.88651522        0.002480
      1410         -0.88651528        0.002480
      1411         -0.88651535        0.002480
      1412         -0.88651540        0.002480
      1413         -0.88651632        0.002480
      1414         -0.88651655        0.002480
      1415         -0.88651672        0.002480
      1416         -0.88651690        0.002480
      1417         -0.88651726        0.002480
      1418         -0.88651747        0.002480
      1419         -0.88651757        0.002480
      1420         -0.88651774        0.002480
      1421         -0.88651782        0.002480
      1422         -0.88651824        0.002480
      1423         -0.88651869        0.002480
      1424         -0.88651906        0.002480
      1425         -0.88651945        0.002480
      1426         -0.88651946        0.002480
      1427         -0.88651990        0.002480
      1428         -0.88652061        0.002480
      1429         -0.88652067        0.002480
      1430         -0.88652174        0.002480
      1431         -0.88652286        0.002480
      1432         -0.88652328        0.002480
      1433         -0.88652335        0.002480
      1434         -0.88652360        0.002480
      1435         -0.88652381        0.002480
      1436         -0.88652422        0.002480
      1437         -0.88652454        0.002480
      1438         -0.88652480        0.002480
      1439         -0.88652501        0.002480
      1440         -0.88652510        0.002480
      1441         -0.88652522        0.002480
      1442         -0.88652595        0.002480
      1443         -0.88652650        0.002480
      1444         -0.88652718        0.002480
      1445         -0.88652721        0.002480
      1446         -0.88652760        0.002480
      1447         -0.88652822        0.002480
      1448         -0.88652839        0.002480
      1449         -0.88652889        0.002480
      1450         -0.88652914        0.002480
      1451         -0.88653017        0.002480
      1452         -0.88653047        0.002480
      1453         -0.88653057        0.002480
      1454         -0.88653060        0.002480
      1455         -0.88653092        0.002480
      1456         -0.88653151        0.002480
      1457         -0.88653210        0.002480
      1458         -0.88653228        0.002480
      1459         -0.88653237        0.002480
      1460         -0.88653316        0.002480
      1461         -0.88653327        0.002480
      1462         -0.88653362        0.002480
      1463         -0.88653404        0.002480
      1464         -0.88653438        0.002480
      1465         -0.88653500        0.002480
      1466         -0.88653542        0.002480
      1467         -0.88653575        0.002480
      1468         -0.88653612        0.002480
      1469         -0.88653621        0.002480
      1470         -0.88653650        0.002480
      1471         -0.88653653        0.002480
      1472         -0.88653678        0.002480
      1473         -0.88653685        0.002480
      1474         -0.88653729        0.002480
      1475         -0.88653745        0.002480
      1476         -0.88653780        0.002480
      1477         -0.88653781        0.002480
      1478         -0.88653809        0.002480
      1479         -0.88653809        0.002480
      1480         -0.88653837        0.002480
      1481         -0.88653858        0.002480
      1482         -0.88653869        0.002480
      1483         -0.88653892        0.002480
      1484         -0.88653897        0.002480
      1485         -0.88653912        0.002480
      1486         -0.88653936        0.002480
      1487         -0.88653961        0.002480
      1488         -0.88653995        0.002480
      1489         -0.88654062        0.002480
      1490         -0.88654073        0.002480
      1491         -0.88654130        0.002480
      1492         -0.88654159        0.002480
      1493         -0.88654166        0.002480
      1494         -0.88654243        0.002480
      1495         -0.88654264        0.002480
      1496         -0.88654322        0.002480
      1497         -0.88654353        0.002480
      1498         -0.88654385        0.002480
      1499         -0.88654402        0.002480
      1500         -0.88654407        0.002480
      1501         -0.88654445        0.002480
      1502         -0.88654472        0.002480
      1503         -0.88654520        0.002480
      1504         -0.88654557        0.002480
      1505         -0.88654609        0.002480
      1506         -0.88654618        0.002480
      1507         -0.88654638        0.002480
      1508         -0.88654664        0.002480
      1509         -0.88654674        0.002480
      1510         -0.88654689        0.002480
      1511         -0.88654711        0.002480
      1512         -0.88654812        0.002480
      1513         -0.88654836        0.002480
      1514         -0.88654917        0.002480
      1515         -0.88654920        0.002480
      1516         -0.88654982        0.002480
      1517         -0.88654990        0.002480
      1518         -0.88655058        0.002480
      1519         -0.88655074        0.002480
      1520         -0.88655100        0.002480
      1521         -0.88655101        0.002480
      1522         -0.88655152        0.002480
      1523         -0.88655174        0.002480
      1524         -0.88655195        0.002480
      1525         -0.88655234        0.002480
      1526         -0.88655315        0.002480
      1527         -0.88655349        0.002480
      1528         -0.88655400        0.002480
      1529         -0.88655414        0.002480
      1530         -0.88655477        0.002480
      1531         -0.88655484        0.002480
      1532         -0.88655557        0.002480
      1533         -0.88655564        0.002480
      1534         -0.88655566        0.002480
      1535         -0.88655581        0.002480
      1536         -0.88655584        0.002480
      1537         -0.88655599        0.002480
      1538         -0.88655653        0.002480
      1539         -0.88655669        0.002480
      1540         -0.88655781        0.002480
      1541         -0.88655789        0.002480
      1542         -0.88655829        0.002480
      1543         -0.88655870        0.002480
      1544         -0.88655875        0.002480
      1545         -0.88655902        0.002480
      1546         -0.88655941        0.002480
      1547         -0.88655967        0.002480
      1548         -0.88656065        0.002480
      1549         -0.88656077        0.002480
      1550         -0.88656088        0.002480
      1551         -0.88656090        0.002480
[...]

                     1                       2                       3                       4                       5                       6  
       ----------------------- ----------------------- ----------------------- ----------------------- ----------------------- -----------------------
   1       0.88163,   -0.13352    -0.43110,    0.06738    -0.02576,    0.02875     0.00989,   -0.07407    -0.00105,    0.05288    -0.02031,    0.03989
   2       0.18622,   -0.39821     0.37035,   -0.81411    -0.00019,    0.01477    -0.01949,    0.01975    -0.00997,   -0.02138    -0.02604,   -0.04571
   3       0.05947,    0.00868    -0.01998,   -0.00076     0.56054,   -0.67880    -0.30255,    0.34911    -0.01762,    0.03665     0.03684,    0.01736
   4      -0.02736,   -0.04104     0.03226,   -0.00660     0.30929,   -0.34961     0.59440,   -0.64780     0.00445,   -0.00679    -0.02656,   -0.02739
   5      -0.03004,   -0.00701     0.03245,    0.03647    -0.01692,   -0.02984     0.00154,   -0.00455    -0.40828,    0.15312    -0.35099,    0.10874
   6      -0.01569,    0.02631    -0.03599,   -0.00883     0.01006,   -0.01458     0.00076,   -0.02039     0.41613,   -0.11271     0.41192,   -0.12530
   7      -0.03099,    0.00443     0.05578,   -0.00122    -0.00515,   -0.00264     0.05454,   -0.00982    -0.09643,    0.36351    -0.09205,    0.37746
   8      -0.02159,    0.02107    -0.00412,   -0.02051     0.03945,   -0.01117     0.01845,    0.00165     0.30765,   -0.28460    -0.26424,    0.30355
   9      -0.01947,    0.02342    -0.01622,   -0.00816     0.03712,    0.02257    -0.03230,   -0.02846    -0.19543,    0.30589     0.25753,   -0.34880
  10       0.02541,   -0.01580     0.00868,   -0.02220    -0.00717,   -0.01714     0.02676,    0.02909    -0.28989,   -0.29332     0.27776,    0.30605

                     7                       8                       9                      10  
       ----------------------- ----------------------- ----------------------- -----------------------
   1      -0.01593,   -0.00308    -0.01573,   -0.00503     0.00965,    0.01493    -0.03965,    0.01460
   2       0.01810,    0.01446    -0.02731,   -0.00309    -0.02156,    0.00223    -0.01299,    0.02413
   3      -0.00194,    0.00045     0.00476,   -0.01208     0.03190,    0.04998    -0.00842,   -0.02306
   4       0.02632,    0.00303     0.01145,    0.04557     0.00819,   -0.01044     0.01534,   -0.02817
   5      -0.46019,    0.15175    -0.57843,    0.19175    -0.22781,    0.07838    -0.06401,    0.04482
   6      -0.01516,   -0.04772    -0.26429,    0.11748    -0.53424,    0.18626    -0.44854,    0.13514
   7       0.11521,   -0.48145     0.10311,   -0.28757    -0.07367,    0.30756    -0.09514,    0.50294
   8      -0.36916,    0.36022     0.20657,   -0.22885     0.17449,   -0.18835    -0.36567,    0.31352
   9       0.00635,   -0.03860    -0.09952,    0.17906     0.35369,   -0.48185    -0.30240,    0.42782
  10      -0.35760,   -0.34738     0.38510,    0.40367    -0.20138,   -0.23154     0.04209,   -0.00293

                   WFN1 Final beta Correlation Function Analysis
                   ---------------------------------------------


 global array: Cb[1:10,1:10],  handle: -980 

                     1                       2                       3                       4                       5                       6  
       ----------------------- ----------------------- ----------------------- ----------------------- ----------------------- -----------------------
   1       0.88163,   -0.13352    -0.43110,    0.06738    -0.02576,    0.02875     0.00989,   -0.07407    -0.00105,    0.05288    -0.02031,    0.03989
   2       0.18622,   -0.39821     0.37035,   -0.81411    -0.00019,    0.01477    -0.01949,    0.01975    -0.00997,   -0.02138    -0.02604,   -0.04571
   3       0.05947,    0.00868    -0.01998,   -0.00076     0.56054,   -0.67880    -0.30255,    0.34911    -0.01762,    0.03665     0.03684,    0.01736
   4      -0.02736,   -0.04104     0.03226,   -0.00660     0.30929,   -0.34961     0.59440,   -0.64780     0.00445,   -0.00679    -0.02656,   -0.02739
   5      -0.03004,   -0.00701     0.03245,    0.03647    -0.01692,   -0.02984     0.00154,   -0.00455    -0.40828,    0.15312    -0.35099,    0.10874
   6      -0.01569,    0.02631    -0.03599,   -0.00883     0.01006,   -0.01458     0.00076,   -0.02039     0.41613,   -0.11271     0.41192,   -0.12530
   7      -0.03099,    0.00443     0.05578,   -0.00122    -0.00515,   -0.00264     0.05454,   -0.00982    -0.09643,    0.36351    -0.09205,    0.37746
   8      -0.02159,    0.02107    -0.00412,   -0.02051     0.03945,   -0.01117     0.01845,    0.00165     0.30765,   -0.28460    -0.26424,    0.30355
   9      -0.01947,    0.02342    -0.01622,   -0.00816     0.03712,    0.02257    -0.03230,   -0.02846    -0.19543,    0.30589     0.25753,   -0.34880
  10       0.02541,   -0.01580     0.00868,   -0.02220    -0.00717,   -0.01714     0.02676,    0.02909    -0.28989,   -0.29332     0.27776,    0.30605

                     7                       8                       9                      10  
       ----------------------- ----------------------- ----------------------- -----------------------
   1      -0.01593,   -0.00308    -0.01573,   -0.00503     0.00965,    0.01493    -0.03965,    0.01460
   2       0.01810,    0.01446    -0.02731,   -0.00309    -0.02156,    0.00223    -0.01299,    0.02413
   3      -0.00194,    0.00045     0.00476,   -0.01208     0.03190,    0.04998    -0.00842,   -0.02306
   4       0.02632,    0.00303     0.01145,    0.04557     0.00819,   -0.01044     0.01534,   -0.02817
   5      -0.46019,    0.15175    -0.57843,    0.19175    -0.22781,    0.07838    -0.06401,    0.04482
   6      -0.01516,   -0.04772    -0.26429,    0.11748    -0.53424,    0.18626    -0.44854,    0.13514
   7       0.11521,   -0.48145     0.10311,   -0.28757    -0.07367,    0.30756    -0.09514,    0.50294
   8      -0.36916,    0.36022     0.20657,   -0.22885     0.17449,   -0.18835    -0.36567,    0.31352
   9       0.00635,   -0.03860    -0.09952,    0.17906     0.35369,   -0.48185    -0.30240,    0.42782
  10      -0.35760,   -0.34738     0.38510,    0.40367    -0.20138,   -0.23154     0.04209,   -0.00293

                     WFN1 Final Alpha Natural Orbital Analysis
                     -----------------------------------------

 Vector    1  Occ=7.951012D-01  E= 0.000000D+00
              MO Center= -9.0D-06,  1.6D-05,  3.3D-04, r^2= 2.3D+00
   Bfn.  Coefficient  Atom+Function         Bfn.  Coefficient  Atom+Function  
  ----- ------------  ---------------      ----- ------------  ---------------
     2     -0.499247  1 H  s                  7     -0.499550  2 H  s          
     1     -0.222204  1 H  s                  6     -0.222099  2 H  s          

 Vector    2  Occ=1.932506D-01  E= 0.000000D+00
              MO Center=  2.4D-05,  1.1D-05, -2.7D-04, r^2= 2.5D+00
   Bfn.  Coefficient  Atom+Function         Bfn.  Coefficient  Atom+Function  
  ----- ------------  ---------------      ----- ------------  ---------------
     2      0.533400  1 H  s                  7     -0.532960  2 H  s          
     1      0.284133  1 H  s                  6     -0.284492  2 H  s          

 Vector    3  Occ=3.612547D-03  E= 0.000000D+00
              MO Center= -1.5D-03, -1.4D-03,  1.0D-03, r^2= 2.4D+00
   Bfn.  Coefficient  Atom+Function         Bfn.  Coefficient  Atom+Function  
  ----- ------------  ---------------      ----- ------------  ---------------
     6      0.897211  2 H  s                  1      0.891310  1 H  s          
     7     -0.686910  2 H  s                  2     -0.681482  1 H  s          
     5     -0.042335  1 H  pz         

 Vector    4  Occ=2.432631D-03  E= 0.000000D+00
              MO Center= -1.8D-03, -6.4D-04, -5.7D-03, r^2= 3.0D+00
   Bfn.  Coefficient  Atom+Function         Bfn.  Coefficient  Atom+Function  
  ----- ------------  ---------------      ----- ------------  ---------------
     1     -0.924906  1 H  s                  2      0.925406  1 H  s          
     6      0.918600  2 H  s                  7     -0.921405  2 H  s          
    10     -0.051562  2 H  pz         

 Vector    5  Occ=9.517519D-04  E= 0.000000D+00
              MO Center= -1.7D-04,  3.3D-04, -1.1D-02, r^2= 1.8D+00
   Bfn.  Coefficient  Atom+Function         Bfn.  Coefficient  Atom+Function  
  ----- ------------  ---------------      ----- ------------  ---------------
     9     -0.630679  2 H  py                 4     -0.617542  1 H  py         
     3      0.348373  1 H  px                 8      0.311210  2 H  px         
     5      0.044433  1 H  pz                10      0.026193  2 H  pz         

 Vector    6  Occ=9.382214D-04  E= 0.000000D+00
              MO Center=  1.5D-03,  8.9D-04,  6.2D-03, r^2= 1.8D+00
   Bfn.  Coefficient  Atom+Function         Bfn.  Coefficient  Atom+Function  
  ----- ------------  ---------------      ----- ------------  ---------------
     3      0.647532  1 H  px                 8      0.598075  2 H  px         
     9      0.377310  2 H  py                 4      0.279421  1 H  py         
    10     -0.049002  2 H  pz         

 Vector    7  Occ=9.802700D-04  E= 0.000000D+00
              MO Center=  1.8D-03,  9.5D-04, -7.0D-03, r^2= 1.8D+00
   Bfn.  Coefficient  Atom+Function         Bfn.  Coefficient  Atom+Function  
  ----- ------------  ---------------      ----- ------------  ---------------
     8      0.631310  2 H  px                 3     -0.614711  1 H  px         
     4     -0.351728  1 H  py                 9      0.313729  2 H  py         
     5     -0.034536  1 H  pz         

 Vector    8  Occ=9.099893D-04  E= 0.000000D+00
              MO Center=  3.6D-04, -4.6D-04,  1.2D-02, r^2= 1.8D+00
   Bfn.  Coefficient  Atom+Function         Bfn.  Coefficient  Atom+Function  
  ----- ------------  ---------------      ----- ------------  ---------------
     4      0.643994  1 H  py                 9     -0.599011  2 H  py         
     8      0.381732  2 H  px                 3     -0.279805  1 H  px         
     5     -0.044501  1 H  pz         

 Vector    9  Occ=9.276111D-04  E= 0.000000D+00
              MO Center= -3.9D-05,  9.7D-05,  9.2D-03, r^2= 1.8D+00
   Bfn.  Coefficient  Atom+Function         Bfn.  Coefficient  Atom+Function  
  ----- ------------  ---------------      ----- ------------  ---------------
    10      0.710001  2 H  pz                 5     -0.700797  1 H  pz         
     2      0.088105  1 H  s                  1     -0.080031  1 H  s          
     3      0.053098  1 H  px                 7      0.046768  2 H  s          
     6     -0.039013  2 H  s                  9      0.027357  2 H  py         

 Vector   10  Occ=8.951401D-04  E= 0.000000D+00
              MO Center= -1.3D-04,  2.2D-04, -4.6D-03, r^2= 1.8D+00
   Bfn.  Coefficient  Atom+Function         Bfn.  Coefficient  Atom+Function  
  ----- ------------  ---------------      ----- ------------  ---------------
     5      0.709716  1 H  pz                10      0.701115  2 H  pz         
     7     -0.117953  2 H  s                  6      0.098008  2 H  s          
     2      0.091587  1 H  s                  1     -0.063964  1 H  s          
     9      0.042921  2 H  py                 4      0.040657  1 H  py         
     8      0.028099  2 H  px         


                     WFN1 Final Beta Natural Orbital Analysis
                     ----------------------------------------

 Vector    1  Occ=7.951012D-01  E= 0.000000D+00
              MO Center= -9.0D-06,  1.6D-05,  3.3D-04, r^2= 2.3D+00
   Bfn.  Coefficient  Atom+Function         Bfn.  Coefficient  Atom+Function  
  ----- ------------  ---------------      ----- ------------  ---------------
     2     -0.499247  1 H  s                  7     -0.499550  2 H  s          
     1     -0.222204  1 H  s                  6     -0.222099  2 H  s          

 Vector    2  Occ=1.932506D-01  E= 0.000000D+00
              MO Center=  2.4D-05,  1.1D-05, -2.7D-04, r^2= 2.5D+00
   Bfn.  Coefficient  Atom+Function         Bfn.  Coefficient  Atom+Function  
  ----- ------------  ---------------      ----- ------------  ---------------
     2      0.533400  1 H  s                  7     -0.532960  2 H  s          
     1      0.284133  1 H  s                  6     -0.284492  2 H  s          

 Vector    3  Occ=3.612547D-03  E= 0.000000D+00
              MO Center= -1.5D-03, -1.4D-03,  1.0D-03, r^2= 2.4D+00
   Bfn.  Coefficient  Atom+Function         Bfn.  Coefficient  Atom+Function  
  ----- ------------  ---------------      ----- ------------  ---------------
     6      0.897211  2 H  s                  1      0.891310  1 H  s          
     7     -0.686910  2 H  s                  2     -0.681482  1 H  s          
     5     -0.042335  1 H  pz         

 Vector    4  Occ=2.432631D-03  E= 0.000000D+00
              MO Center= -1.8D-03, -6.4D-04, -5.7D-03, r^2= 3.0D+00
   Bfn.  Coefficient  Atom+Function         Bfn.  Coefficient  Atom+Function  
  ----- ------------  ---------------      ----- ------------  ---------------
     1     -0.924906  1 H  s                  2      0.925406  1 H  s          
     6      0.918600  2 H  s                  7     -0.921405  2 H  s          
    10     -0.051562  2 H  pz         

 Vector    5  Occ=9.517519D-04  E= 0.000000D+00
              MO Center= -1.7D-04,  3.3D-04, -1.1D-02, r^2= 1.8D+00
   Bfn.  Coefficient  Atom+Function         Bfn.  Coefficient  Atom+Function  
  ----- ------------  ---------------      ----- ------------  ---------------
     9     -0.630679  2 H  py                 4     -0.617542  1 H  py         
     3      0.348373  1 H  px                 8      0.311210  2 H  px         
     5      0.044433  1 H  pz                10      0.026193  2 H  pz         

 Vector    6  Occ=9.382214D-04  E= 0.000000D+00
              MO Center=  1.5D-03,  8.9D-04,  6.2D-03, r^2= 1.8D+00
   Bfn.  Coefficient  Atom+Function         Bfn.  Coefficient  Atom+Function  
  ----- ------------  ---------------      ----- ------------  ---------------
     3      0.647532  1 H  px                 8      0.598075  2 H  px         
     9      0.377310  2 H  py                 4      0.279421  1 H  py         
    10     -0.049002  2 H  pz         

 Vector    7  Occ=9.802700D-04  E= 0.000000D+00
              MO Center=  1.8D-03,  9.5D-04, -7.0D-03, r^2= 1.8D+00
   Bfn.  Coefficient  Atom+Function         Bfn.  Coefficient  Atom+Function  
  ----- ------------  ---------------      ----- ------------  ---------------
     8      0.631310  2 H  px                 3     -0.614711  1 H  px         
     4     -0.351728  1 H  py                 9      0.313729  2 H  py         
     5     -0.034536  1 H  pz         

 Vector    8  Occ=9.099893D-04  E= 0.000000D+00
              MO Center=  3.6D-04, -4.6D-04,  1.2D-02, r^2= 1.8D+00
   Bfn.  Coefficient  Atom+Function         Bfn.  Coefficient  Atom+Function  
  ----- ------------  ---------------      ----- ------------  ---------------
     4      0.643994  1 H  py                 9     -0.599011  2 H  py         
     8      0.381732  2 H  px                 3     -0.279805  1 H  px         
     5     -0.044501  1 H  pz         

 Vector    9  Occ=9.276111D-04  E= 0.000000D+00
              MO Center= -3.9D-05,  9.7D-05,  9.2D-03, r^2= 1.8D+00
   Bfn.  Coefficient  Atom+Function         Bfn.  Coefficient  Atom+Function  
  ----- ------------  ---------------      ----- ------------  ---------------
    10      0.710001  2 H  pz                 5     -0.700797  1 H  pz         
     2      0.088105  1 H  s                  1     -0.080031  1 H  s          
     3      0.053098  1 H  px                 7      0.046768  2 H  s          
     6     -0.039013  2 H  s                  9      0.027357  2 H  py         

 Vector   10  Occ=8.951401D-04  E= 0.000000D+00
              MO Center= -1.3D-04,  2.2D-04, -4.6D-03, r^2= 1.8D+00
   Bfn.  Coefficient  Atom+Function         Bfn.  Coefficient  Atom+Function  
  ----- ------------  ---------------      ----- ------------  ---------------
     5      0.709716  1 H  pz                10      0.701115  2 H  pz         
     7     -0.117953  2 H  s                  6      0.098008  2 H  s          
     2      0.091587  1 H  s                  1     -0.063964  1 H  s          
     9      0.042921  2 H  py                 4      0.040657  1 H  py         
     8      0.028099  2 H  px         


 Task  times  cpu:     2392.9s     wall:     2788.0s
 Summary of allocated global arrays
-----------------------------------
  No active global arrays



                         GA Statistics for process    0
                         ------------------------------

       create   destroy   get      put      acc     scatter   gather  read&inc
calls:   44       44     8.73e+08 3.75e+05 4.98e+05    0        0       11     
number of processes/call 1.00e+00 1.00e+00 1.00e+00 0.00e+00 0.00e+00
bytes total:             6.98e+11 3.98e+08 4.97e+08 0.00e+00 0.00e+00 8.80e+01
bytes remote:            0.00e+00 0.00e+00 0.00e+00 0.00e+00 0.00e+00 0.00e+00
Max memory consumed for GA by this process: 268000 bytes
MA_summarize_allocated_blocks: starting scan ...
MA_summarize_allocated_blocks: scan completed: 0 heap blocks, 0 stack blocks
MA usage statistics:

	allocation statistics:
					      heap	     stack
					      ----	     -----
	current number of blocks	         0	         0
	maximum number of blocks	        19	        17
	current total bytes		         0	         0
	maximum total bytes		   3205416	  22508616
	maximum total K-bytes		      3206	     22509
	maximum total M-bytes		         4	        23


                                NWChem Input Module
                                -------------------





                                     CITATION
                                     --------
                Please cite the following reference when publishing
                           results obtained with NWChem:

                 M. Valiev, E.J. Bylaska, N. Govind, K. Kowalski,
              T.P. Straatsma, H.J.J. van Dam, D. Wang, J. Nieplocha,
                        E. Apra, T.L. Windus, W.A. de Jong
                 "NWChem: a comprehensive and scalable open-source
                  solution for large scale molecular simulations"
                      Comput. Phys. Commun. 181, 1477 (2010)
                           doi:10.1016/j.cpc.2010.04.018

                                      AUTHORS
                                      -------
          E. Apra, E. J. Bylaska, W. A. de Jong, N. Govind, K. Kowalski,
       T. P. Straatsma, M. Valiev, H. J. J. van Dam, D. Wang, T. L. Windus,
        J. Hammond, J. Autschbach, K. Bhaskaran-Nair, J. Brabec, K. Lopata,
    S. A. Fischer, S. Krishnamoorthy, M. Jacquelin, W. Ma, M. Klemm, O. Villa,
      Y. Chen, V. Anisimov, F. Aquino, S. Hirata, M. T. Hackler, V. Konjkov,
      T. Risthaus, M. Malagoli, A. Marenich, A. Otero-de-la-Roza, J. Mullin,
        P. Nichols, R. Peverati, J. Pittner, Y. Zhao, P.-D. Fan, A. Fonari,
       M. Williamson, R. J. Harrison, J. R. Rehr, M. Dupuis, D. Silverstein,
    D. M. A. Smith, J. Nieplocha, V. Tipparaju, M. Krishnan, B. E. Van Kuiken,
        A. Vazquez-Mayagoitia, L. Jensen, M. Swart, Q. Wu, T. Van Voorhis,
     A. A. Auer, M. Nooijen, L. D. Crosby, E. Brown, G. Cisneros, G. I. Fann,
   H. Fruchtl, J. Garza, K. Hirao, R. A. Kendall, J. A. Nichols, K. Tsemekhman,
    K. Wolinski, J. Anchell, D. E. Bernholdt, P. Borowski, T. Clark, D. Clerc,
   H. Dachsel, M. J. O. Deegan, K. Dyall, D. Elwood, E. Glendening, M. Gutowski,
   A. C. Hess, J. Jaffe, B. G. Johnson, J. Ju, R. Kobayashi, R. Kutteh, Z. Lin,
   R. Littlefield, X. Long, B. Meng, T. Nakajima, S. Niu, L. Pollack, M. Rosing,
   K. Glaesemann, G. Sandrone, M. Stave, H. Taylor, G. Thomas, J. H. van Lenthe,
                               A. T. Wong, Z. Zhang.

 Total times  cpu:     2392.9s     wall:     2788.3s
