 argument  1 = input-wf.nw



============================== echo of input deck ==============================
echo
start wfn1_dat
geometry units au noautoz
  H 0 0 -.84434600000000000000
  H 0 0  .84434600000000000000
  symmetry cs
end
basis
  H library 6-31g**
end
set wfn1:input_vectors "atomic"
set wfn1:solver "monte-carlo"
set wfn1:print_error F
set wfn1:t_initial 0.1
#set wfn1:corr_expr "wfn1_mx"
set wfn1:corr_expr "wfn1c"
set wfn1:t_bath 0.0
set wfn1:maxit  20000
task wfn1 energy
================================================================================


                                         
                                         


              Northwest Computational Chemistry Package (NWChem) 6.8
              ------------------------------------------------------


                    Environmental Molecular Sciences Laboratory
                       Pacific Northwest National Laboratory
                                Richland, WA 99352

                              Copyright (c) 1994-2015
                       Pacific Northwest National Laboratory
                            Battelle Memorial Institute

             NWChem is an open-source computational chemistry package
                        distributed under the terms of the
                      Educational Community License (ECL) 2.0
             A copy of the license is included with this distribution
                              in the LICENSE.TXT file

                                  ACKNOWLEDGMENT
                                  --------------

            This software and its documentation were developed at the
            EMSL at Pacific Northwest National Laboratory, a multiprogram
            national laboratory, operated for the U.S. Department of Energy
            by Battelle under Contract Number DE-AC05-76RL01830. Support
            for this work was provided by the Department of Energy Office
            of Biological and Environmental Research, Office of Basic
            Energy Sciences, and the Office of Advanced Scientific Computing.


           Job information
           ---------------

    hostname        = erato
    program         = ../../../bin/LINUX64/nwchem
    date            = Mon Mar  1 10:12:02 2021

    compiled        = Sun_Feb_28_18:02:42_2021
    source          = /home/hvandam/nwchem-1-wfn1
    nwchem branch   = Development
    nwchem revision = nwchem_on_git-124-gad72d19fff205e319ffbbf2bca37a04ded6ad57b
    ga revision     = nwchem_on_git-124-gad72d19
    use scalapack   = F
    input           = input-wf.nw
    prefix          = wfn1_dat.
    data base       = ./wfn1_dat.db
    status          = startup
    nproc           =        1
    time left       =     -1s



           Memory information
           ------------------

    heap     =   13107200 doubles =    100.0 Mbytes
    stack    =   13107197 doubles =    100.0 Mbytes
    global   =   26214400 doubles =    200.0 Mbytes (distinct from heap & stack)
    total    =   52428797 doubles =    400.0 Mbytes
    verify   = yes
    hardfail = no 


           Directory information
           ---------------------

  0 permanent = .
  0 scratch   = .




                                NWChem Input Module
                                -------------------


 Turning off AUTOSYM since
 SYMMETRY directive was detected!



                             Geometry "geometry" -> ""
                             -------------------------

 Output coordinates in a.u. (scale by  1.000000000 to convert to a.u.)

  No.       Tag          Charge          X              Y              Z
 ---- ---------------- ---------- -------------- -------------- --------------
    1 H                    1.0000     0.00000000     0.00000000    -0.84434600
    2 H                    1.0000     0.00000000     0.00000000     0.84434600

      Atomic Mass 
      ----------- 

      H                  1.007825


 Effective nuclear repulsion energy (a.u.)       0.5921742982

            Nuclear Dipole moment (a.u.) 
            ----------------------------
        X                 Y               Z
 ---------------- ---------------- ----------------
     0.0000000000     0.0000000000     0.0000000000

      Symmetry information
      --------------------

 Group name             Cs        
 Group number              2
 Group order               2
 No. of unique centers     1

      Symmetry unique atoms

     1


            XYZ format geometry
            -------------------
     2
 geometry
 H                     0.00000000     0.00000000    -0.44680869
 H                     0.00000000     0.00000000     0.44680869

                      Basis "ao basis" -> "" (cartesian)
                      -----
  H (Hydrogen)
  ------------
            Exponent  Coefficients 
       -------------- ---------------------------------------------------------
  1 S  1.87311370E+01  0.033495
  1 S  2.82539370E+00  0.234727
  1 S  6.40121700E-01  0.813757

  2 S  1.61277800E-01  1.000000

  3 P  1.10000000E+00  1.000000



 Summary of "ao basis" -> "" (cartesian)
 ------------------------------------------------------------------------------
       Tag                 Description            Shells   Functions and Types
 ---------------- ------------------------------  ------  ---------------------
 H                          6-31g**                  3        5   2s1p



                                NWChem WFN1 Module
                                ------------------



          No. of electrons :     2
           Alpha electrons :     1
            Beta electrons :     1
          Charge           :     0
          Spin multiplicity:     1

 HvD: wfn1_inpdft
 HvD: nquad_task =                     1
 HvD: iangquad   =                     0
 HvD: gridtype   = user      
 HvD: leb        =  T
 HvD: radgrid    = murakn    
 HvD: trunc_neigh=  T
 HvD: lssw       =  T
 HvD: whichssw   = erf1    
 HvD: mxnrad     =                     0
 HvD: mxnang     =                     0
 HVD: wfn1: movecs_in  = atomic                                                                                                                                                                                                                                                          
 HVD: wfn1: movecs_out = ./wfn1_dat.movecs                                                                                                                                                                                                                                               

      Superposition of Atomic Density Guess
      -------------------------------------

 Sum of atomic energies:          -0.99646508

      Non-variational initial energy
      ------------------------------

 Total energy =      -0.826223
 1-e energy   =      -2.075246
 2-e energy   =       0.656848
 HOMO         =      -0.513204
 LUMO         =       0.130957

 iteration              energy           error
 ---------              ------           -----
         0         -1.11680596        0.200000
         1         -1.11688893        0.200000
         2         -1.11713551        0.200000
         3         -1.11741847        0.185175
         4         -1.11787416        0.185175
         5         -1.11802953        0.158740
         6         -1.11824621        0.158740
         7         -1.11850342        0.136079
         8         -1.11853898        0.125992
         9         -1.11854034        0.125992
        10         -1.11870338        0.100000
        11         -1.11888173        0.100000
        12         -1.11889654        0.092587
        13         -1.11891024        0.079370
        14         -1.11891069        0.079370
        15         -1.11906200        0.079370
        16         -1.11906316        0.062996
        17         -1.11910271        0.058326
        18         -1.11910788        0.058326
        19         -1.11911926        0.054003
        20         -1.11913417        0.054003
        21         -1.11914402        0.054003
        22         -1.11915110        0.054003
        23         -1.11916333        0.054003
        24         -1.11918552        0.039685
        25         -1.11920161        0.036743
        26         -1.11921781        0.036743
        27         -1.11922007        0.034020
        28         -1.11922448        0.034020
        29         -1.11923288        0.023147
        30         -1.11923596        0.023147
        31         -1.11923716        0.019843
        32         -1.11923868        0.017010
        33         -1.11923941        0.017010
        34         -1.11923945        0.014582
        35         -1.11924240        0.014582
        36         -1.11924395        0.014582
        37         -1.11924794        0.014582
        38         -1.11924819        0.013501
        39         -1.11925600        0.012500
        40         -1.11925622        0.011573
        41         -1.11926155        0.011573
        42         -1.11926748        0.011573
        43         -1.11926990        0.011573
        44         -1.11926996        0.008505
        45         -1.11927359        0.008505
        46         -1.11927393        0.008505
        47         -1.11927395        0.007875
        48         -1.11927406        0.007291
        49         -1.11927662        0.007291
        50         -1.11928106        0.007291
        51         -1.11928725        0.006250
        52         -1.11929318        0.006250
        53         -1.11929553        0.005787
        54         -1.11929763        0.002893
        55         -1.11929982        0.002893
        56         -1.11930035        0.000723
        57         -1.11930212        0.000310
        58         -1.11930275        0.000266
        59         -1.11930373        0.000114
        60         -1.11930392        0.000062
        61         -1.11930416        0.000033
        62         -1.11930423        0.000017
        63         -1.11930436        0.000017
        64         -1.11930445        0.000005
        65         -1.11930450        0.000004
        66         -1.11930459        0.000001
        67         -1.11930459        0.000001

 Reached Convergence

 WFN1                     :
 --------------------------
 Total WFN1 energy  =          -1.1193045882
 1-Electron energy  =          -2.3133345066
 2-Electron energy  =           0.6063506548
 Correlation energy =          -0.0044950346
 DFT XC energy      =           0.0000000000
 Entropy energy     =           0.0000000000
 Nuclear energy     =           0.5921742982

 conventional Hartree-Fock:
 --------------------------
 Total SCF energy  =          -1.1180280845
 2-Electron energy =           0.6076271585

                WFN1 Final Natural orbital energies and occupations
                ---------------------------------------------------

              Alpha       Beta            Alpha       Beta  
            --------    --------        --------    --------
       1      0.0000      0.0000          0.9984      0.9984
       2      0.0000      0.0000          0.0012      0.0012
       3      0.0000      0.0000          0.0000      0.0000
       4      0.0000      0.0000          0.0002      0.0002
       5      0.0000      0.0000          0.0000      0.0000
       6      0.0000      0.0000          0.0001      0.0001
       7      0.0000      0.0000          0.0001      0.0001
       8      0.0000      0.0000          0.0000      0.0000
       9      0.0000      0.0000          0.0001      0.0001
      10      0.0000      0.0000          0.0000      0.0000

             WFN1 Final Correlation function energies and occupations
             --------------------------------------------------------

              Alpha       Beta            Alpha       Beta  
            --------    --------        --------    --------
       1      0.0000      0.0000          1.0000      1.0000
       2      0.0000      0.0000          0.0000      0.0000
       3      0.0000      0.0000          0.0000      0.0000
       4      0.0000      0.0000          0.0000      0.0000
       5      0.0000      0.0000          0.0000      0.0000
       6      0.0000      0.0000          0.0000      0.0000
       7      0.0000      0.0000          0.0000      0.0000
       8      0.0000      0.0000          0.0000      0.0000
       9      0.0000      0.0000          0.0000      0.0000
      10      0.0000      0.0000          0.0000      0.0000

                WFN1 Final alpha-alpha 2-matrix occupation numbers
                --------------------------------------------------


 global array: g_momo1[1:10,1:10],  handle: -990 

            1           2           3           4           5           6  
       ----------- ----------- ----------- ----------- ----------- -----------
   1       0.00000     0.00000     0.00000     0.00000     0.00000    -0.00000
   2      -0.00000    -0.00000    -0.00000     0.00000     0.00000     0.00000
   3       0.00000    -0.00000    -0.00000     0.00000     0.00000     0.00000
   4      -0.00000     0.00000    -0.00000    -0.00000    -0.00000     0.00000
   5       0.00000     0.00000    -0.00000    -0.00000    -0.00000     0.00000
   6       0.00000    -0.00000    -0.00000     0.00000     0.00000    -0.00000
   7       0.00000     0.00000    -0.00000     0.00000    -0.00000    -0.00000
   8       0.00000    -0.00000     0.00000     0.00000     0.00000    -0.00000
   9       0.00000    -0.00000    -0.00000     0.00000    -0.00000    -0.00000
  10       0.00000     0.00000     0.00000     0.00000    -0.00000    -0.00000

            7           8           9          10  
       ----------- ----------- ----------- -----------
   1       0.00000     0.00000     0.00000     0.00000
   2       0.00000     0.00000    -0.00000     0.00000
   3      -0.00000     0.00000     0.00000     0.00000
   4       0.00000     0.00000     0.00000     0.00000
   5      -0.00000     0.00000     0.00000     0.00000
   6      -0.00000     0.00000     0.00000     0.00000
   7       0.00000     0.00000     0.00000     0.00000
   8       0.00000     0.00000     0.00000     0.00000
   9       0.00000     0.00000     0.00000     0.00000
  10      -0.00000     0.00000     0.00000     0.00000

                 WFN1 Final beta-beta 2-matrix occupation numbers
                 ------------------------------------------------


 global array: g_momo2[1:10,1:10],  handle: -989 

            1           2           3           4           5           6  
       ----------- ----------- ----------- ----------- ----------- -----------
   1       0.00000     0.00000     0.00000     0.00000     0.00000    -0.00000
   2      -0.00000    -0.00000    -0.00000     0.00000     0.00000     0.00000
   3       0.00000    -0.00000    -0.00000     0.00000     0.00000     0.00000
   4      -0.00000     0.00000    -0.00000    -0.00000    -0.00000     0.00000
   5       0.00000     0.00000    -0.00000    -0.00000    -0.00000     0.00000
   6       0.00000    -0.00000    -0.00000     0.00000     0.00000    -0.00000
   7       0.00000     0.00000    -0.00000     0.00000    -0.00000    -0.00000
   8       0.00000    -0.00000     0.00000     0.00000     0.00000    -0.00000
   9       0.00000    -0.00000    -0.00000     0.00000    -0.00000    -0.00000
  10       0.00000     0.00000     0.00000     0.00000    -0.00000    -0.00000

            7           8           9          10  
       ----------- ----------- ----------- -----------
   1       0.00000     0.00000     0.00000     0.00000
   2       0.00000     0.00000    -0.00000     0.00000
   3      -0.00000     0.00000     0.00000     0.00000
   4       0.00000     0.00000     0.00000     0.00000
   5      -0.00000     0.00000     0.00000     0.00000
   6      -0.00000     0.00000     0.00000     0.00000
   7       0.00000     0.00000     0.00000     0.00000
   8       0.00000     0.00000     0.00000     0.00000
   9       0.00000     0.00000     0.00000     0.00000
  10      -0.00000     0.00000     0.00000     0.00000

                  WFN1 Final alpha Correlation Function Analysis
                  ----------------------------------------------


 global array: Ca[1:10,1:10],  handle: -977 

                     1                       2                       3                       4                       5                       6  
       ----------------------- ----------------------- ----------------------- ----------------------- ----------------------- -----------------------
   1      -0.95296,    0.30044     0.02210,   -0.02662     0.00055,   -0.00704    -0.00499,   -0.00992    -0.00207,   -0.00542     0.00237,    0.00572
   2       0.00231,   -0.03403    -0.46901,   -0.87995     0.00907,    0.04257     0.00263,    0.02887     0.02148,   -0.01837    -0.01449,    0.00954
   3      -0.00570,   -0.00124    -0.02365,    0.02813    -0.80805,    0.54659     0.17175,   -0.11494     0.01991,   -0.01772     0.01686,   -0.00688
   4      -0.00877,   -0.00884    -0.01496,    0.03425    -0.14813,    0.14260    -0.70754,    0.67251     0.02813,   -0.01627     0.00377,   -0.00180
   5      -0.00000,    0.00000    -0.00182,    0.00622     0.03473,    0.00218     0.02018,   -0.00391     0.69325,    0.08670     0.70746,    0.09011
   6      -0.01008,   -0.00314    -0.03169,   -0.00633    -0.00832,    0.00921     0.00668,    0.01965    -0.07121,    0.70222     0.06815,   -0.69048
   7      -0.00126,    0.00775     0.01192,   -0.00258     0.01775,    0.02630    -0.00991,   -0.01350    -0.06918,    0.07456     0.07680,   -0.05110
   8       0.00115,   -0.00085     0.00639,    0.00859    -0.02117,    0.00201    -0.00892,    0.01355    -0.01241,    0.00638     0.00451,    0.01694
   9      -0.00238,    0.00744    -0.00723,   -0.00002     0.01212,   -0.00070    -0.04071,   -0.00838     0.02023,    0.00800     0.01941,    0.00492
  10      -0.00296,    0.00315     0.01933,   -0.00004    -0.00874,   -0.03196     0.01513,    0.00946    -0.00742,   -0.00523    -0.00757,    0.00417

                     7                       8                       9                      10  
       ----------------------- ----------------------- ----------------------- -----------------------
   1       0.00757,    0.00183    -0.00257,   -0.00583    -0.00112,    0.00638     0.00189,    0.00429
   2      -0.01406,   -0.00247    -0.00113,    0.00208    -0.00564,    0.01035     0.00467,   -0.01876
   3       0.02552,    0.02271     0.00540,   -0.01872    -0.01576,   -0.01366     0.01745,   -0.02946
   4      -0.01393,   -0.00576    -0.01593,   -0.00002     0.03328,   -0.02039    -0.01434,    0.00192
   5      -0.01147,   -0.01973    -0.02863,   -0.00756     0.00608,    0.00592    -0.00784,   -0.00793
   6       0.00197,   -0.13164    -0.01096,    0.03212    -0.01044,    0.00329    -0.00284,   -0.00719
   7      -0.68554,    0.66901     0.17271,   -0.17746     0.02034,   -0.00904    -0.01690,   -0.00204
   8      -0.09015,    0.16754    -0.33145,    0.58861    -0.34725,    0.62077    -0.00387,    0.01410
   9       0.12642,    0.10211     0.56161,    0.40511    -0.56771,   -0.41097     0.00197,    0.00390
  10       0.01812,    0.00313     0.00450,    0.01035     0.00186,    0.00704    -0.68813,   -0.72388

                   WFN1 Final beta Correlation Function Analysis
                   ---------------------------------------------


 global array: Cb[1:10,1:10],  handle: -976 

                     1                       2                       3                       4                       5                       6  
       ----------------------- ----------------------- ----------------------- ----------------------- ----------------------- -----------------------
   1      -0.95296,    0.30044     0.02210,   -0.02662     0.00055,   -0.00704    -0.00499,   -0.00992    -0.00207,   -0.00542     0.00237,    0.00572
   2       0.00231,   -0.03403    -0.46901,   -0.87995     0.00907,    0.04257     0.00263,    0.02887     0.02148,   -0.01837    -0.01449,    0.00954
   3      -0.00570,   -0.00124    -0.02365,    0.02813    -0.80805,    0.54659     0.17175,   -0.11494     0.01991,   -0.01772     0.01686,   -0.00688
   4      -0.00877,   -0.00884    -0.01496,    0.03425    -0.14813,    0.14260    -0.70754,    0.67251     0.02813,   -0.01627     0.00377,   -0.00180
   5      -0.00000,    0.00000    -0.00182,    0.00622     0.03473,    0.00218     0.02018,   -0.00391     0.69325,    0.08670     0.70746,    0.09011
   6      -0.01008,   -0.00314    -0.03169,   -0.00633    -0.00832,    0.00921     0.00668,    0.01965    -0.07121,    0.70222     0.06815,   -0.69048
   7      -0.00126,    0.00775     0.01192,   -0.00258     0.01775,    0.02630    -0.00991,   -0.01350    -0.06918,    0.07456     0.07680,   -0.05110
   8       0.00115,   -0.00085     0.00639,    0.00859    -0.02117,    0.00201    -0.00892,    0.01355    -0.01241,    0.00638     0.00451,    0.01694
   9      -0.00238,    0.00744    -0.00723,   -0.00002     0.01212,   -0.00070    -0.04071,   -0.00838     0.02023,    0.00800     0.01941,    0.00492
  10      -0.00296,    0.00315     0.01933,   -0.00004    -0.00874,   -0.03196     0.01513,    0.00946    -0.00742,   -0.00523    -0.00757,    0.00417

                     7                       8                       9                      10  
       ----------------------- ----------------------- ----------------------- -----------------------
   1       0.00757,    0.00183    -0.00257,   -0.00583    -0.00112,    0.00638     0.00189,    0.00429
   2      -0.01406,   -0.00247    -0.00113,    0.00208    -0.00564,    0.01035     0.00467,   -0.01876
   3       0.02552,    0.02271     0.00540,   -0.01872    -0.01576,   -0.01366     0.01745,   -0.02946
   4      -0.01393,   -0.00576    -0.01593,   -0.00002     0.03328,   -0.02039    -0.01434,    0.00192
   5      -0.01147,   -0.01973    -0.02863,   -0.00756     0.00608,    0.00592    -0.00784,   -0.00793
   6       0.00197,   -0.13164    -0.01096,    0.03212    -0.01044,    0.00329    -0.00284,   -0.00719
   7      -0.68554,    0.66901     0.17271,   -0.17746     0.02034,   -0.00904    -0.01690,   -0.00204
   8      -0.09015,    0.16754    -0.33145,    0.58861    -0.34725,    0.62077    -0.00387,    0.01410
   9       0.12642,    0.10211     0.56161,    0.40511    -0.56771,   -0.41097     0.00197,    0.00390
  10       0.01812,    0.00313     0.00450,    0.01035     0.00186,    0.00704    -0.68813,   -0.72388

                     WFN1 Final Alpha Natural Orbital Analysis
                     -----------------------------------------

 Vector    1  Occ=9.983927D-01  E= 0.000000D+00
              MO Center=  6.9D-04,  7.1D-04,  1.4D-03, r^2= 8.3D-01
   Bfn.  Coefficient  Atom+Function         Bfn.  Coefficient  Atom+Function  
  ----- ------------  ---------------      ----- ------------  ---------------
     7      0.312298  2 H  s                  2      0.305528  1 H  s          
     1      0.299112  1 H  s                  6      0.296643  2 H  s          

 Vector    2  Occ=1.163276D-03  E= 0.000000D+00
              MO Center= -1.3D-02, -2.1D-03,  4.7D-03, r^2= 1.9D+00
   Bfn.  Coefficient  Atom+Function         Bfn.  Coefficient  Atom+Function  
  ----- ------------  ---------------      ----- ------------  ---------------
     2      1.328095  1 H  s                  7     -1.320383  2 H  s          
     6     -0.197039  2 H  s                  1      0.185098  1 H  s          
     3     -0.028940  1 H  px                10     -0.026612  2 H  pz         

 Vector    3  Occ=3.405501D-05  E= 0.000000D+00
              MO Center=  5.8D-04, -5.6D-04, -1.5D-02, r^2= 1.5D+00
   Bfn.  Coefficient  Atom+Function         Bfn.  Coefficient  Atom+Function  
  ----- ------------  ---------------      ----- ------------  ---------------
     1     -0.779831  1 H  s                  6     -0.774676  2 H  s          
     2      0.694248  1 H  s                  7      0.650707  2 H  s          
    10      0.116337  2 H  pz                 5     -0.073243  1 H  pz         
     4      0.025361  1 H  py                 3     -0.025144  1 H  px         

 Vector    4  Occ=1.549798D-04  E= 0.000000D+00
              MO Center=  2.4D-03,  1.6D-03,  3.2D-03, r^2= 1.4D+00
   Bfn.  Coefficient  Atom+Function         Bfn.  Coefficient  Atom+Function  
  ----- ------------  ---------------      ----- ------------  ---------------
     7      1.371100  2 H  s                  2     -1.360262  1 H  s          
     6     -0.941696  2 H  s                  1      0.932990  1 H  s          
     5     -0.170265  1 H  pz                10     -0.146472  2 H  pz         

 Vector    5  Occ=6.462666D-19  E= 0.000000D+00
              MO Center= -4.2D-05, -4.0D-04,  2.3D-02, r^2= 4.8D-01
   Bfn.  Coefficient  Atom+Function         Bfn.  Coefficient  Atom+Function  
  ----- ------------  ---------------      ----- ------------  ---------------
     9     -0.659140  2 H  py                 4     -0.619848  1 H  py         
     3     -0.066515  1 H  px                 8     -0.065730  2 H  px         
     7      0.026728  2 H  s          

 Vector    6  Occ=1.115465D-04  E= 0.000000D+00
              MO Center= -1.2D-03,  8.4D-05, -3.4D-03, r^2= 4.8D-01
   Bfn.  Coefficient  Atom+Function         Bfn.  Coefficient  Atom+Function  
  ----- ------------  ---------------      ----- ------------  ---------------
     3     -0.641440  1 H  px                 8     -0.637881  2 H  px         
     4      0.076137  1 H  py                 9      0.056497  2 H  py         
     2     -0.028293  1 H  s          

 Vector    7  Occ=6.169951D-05  E= 0.000000D+00
              MO Center=  2.8D-05,  1.1D-04,  5.2D-04, r^2= 6.3D-01
   Bfn.  Coefficient  Atom+Function         Bfn.  Coefficient  Atom+Function  
  ----- ------------  ---------------      ----- ------------  ---------------
     5     -0.611786  1 H  pz                10      0.604593  2 H  pz         
     6      0.410164  2 H  s                  1      0.375976  1 H  s          
     7     -0.243223  2 H  s                  2     -0.158177  1 H  s          

 Vector    8  Occ=2.029297D-06  E= 0.000000D+00
              MO Center=  3.1D-04, -1.1D-03, -1.6D-02, r^2= 5.7D-01
   Bfn.  Coefficient  Atom+Function         Bfn.  Coefficient  Atom+Function  
  ----- ------------  ---------------      ----- ------------  ---------------
     4     -0.778759  1 H  py                 9      0.750524  2 H  py         
     8     -0.223842  2 H  px                 3      0.204219  1 H  px         

 Vector    9  Occ=6.104264D-05  E= 0.000000D+00
              MO Center=  1.1D-02,  2.9D-03, -3.0D-03, r^2= 5.7D-01
   Bfn.  Coefficient  Atom+Function         Bfn.  Coefficient  Atom+Function  
  ----- ------------  ---------------      ----- ------------  ---------------
     3     -0.765628  1 H  px                 8      0.764022  2 H  px         
     4     -0.217812  1 H  py                 9      0.210341  2 H  py         
     2     -0.064071  1 H  s                  7      0.040571  2 H  s          

 Vector   10  Occ=1.868648D-05  E= 0.000000D+00
              MO Center= -6.4D-04, -1.3D-03,  5.0D-03, r^2= 6.2D-01
   Bfn.  Coefficient  Atom+Function         Bfn.  Coefficient  Atom+Function  
  ----- ------------  ---------------      ----- ------------  ---------------
     5     -1.218044  1 H  pz                10     -1.221416  2 H  pz         
     1     -0.687199  1 H  s                  6      0.658838  2 H  s          
     7      0.303692  2 H  s                  2     -0.280227  1 H  s          


                     WFN1 Final Beta Natural Orbital Analysis
                     ----------------------------------------

 Vector    1  Occ=9.983927D-01  E= 0.000000D+00
              MO Center=  6.9D-04,  7.1D-04,  1.4D-03, r^2= 8.3D-01
   Bfn.  Coefficient  Atom+Function         Bfn.  Coefficient  Atom+Function  
  ----- ------------  ---------------      ----- ------------  ---------------
     7      0.312298  2 H  s                  2      0.305528  1 H  s          
     1      0.299112  1 H  s                  6      0.296643  2 H  s          

 Vector    2  Occ=1.163276D-03  E= 0.000000D+00
              MO Center= -1.3D-02, -2.1D-03,  4.7D-03, r^2= 1.9D+00
   Bfn.  Coefficient  Atom+Function         Bfn.  Coefficient  Atom+Function  
  ----- ------------  ---------------      ----- ------------  ---------------
     2      1.328095  1 H  s                  7     -1.320383  2 H  s          
     6     -0.197039  2 H  s                  1      0.185098  1 H  s          
     3     -0.028940  1 H  px                10     -0.026612  2 H  pz         

 Vector    3  Occ=3.405501D-05  E= 0.000000D+00
              MO Center=  5.8D-04, -5.6D-04, -1.5D-02, r^2= 1.5D+00
   Bfn.  Coefficient  Atom+Function         Bfn.  Coefficient  Atom+Function  
  ----- ------------  ---------------      ----- ------------  ---------------
     1     -0.779831  1 H  s                  6     -0.774676  2 H  s          
     2      0.694248  1 H  s                  7      0.650707  2 H  s          
    10      0.116337  2 H  pz                 5     -0.073243  1 H  pz         
     4      0.025361  1 H  py                 3     -0.025144  1 H  px         

 Vector    4  Occ=1.549798D-04  E= 0.000000D+00
              MO Center=  2.4D-03,  1.6D-03,  3.2D-03, r^2= 1.4D+00
   Bfn.  Coefficient  Atom+Function         Bfn.  Coefficient  Atom+Function  
  ----- ------------  ---------------      ----- ------------  ---------------
     7      1.371100  2 H  s                  2     -1.360262  1 H  s          
     6     -0.941696  2 H  s                  1      0.932990  1 H  s          
     5     -0.170265  1 H  pz                10     -0.146472  2 H  pz         

 Vector    5  Occ=6.462666D-19  E= 0.000000D+00
              MO Center= -4.2D-05, -4.0D-04,  2.3D-02, r^2= 4.8D-01
   Bfn.  Coefficient  Atom+Function         Bfn.  Coefficient  Atom+Function  
  ----- ------------  ---------------      ----- ------------  ---------------
     9     -0.659140  2 H  py                 4     -0.619848  1 H  py         
     3     -0.066515  1 H  px                 8     -0.065730  2 H  px         
     7      0.026728  2 H  s          

 Vector    6  Occ=1.115465D-04  E= 0.000000D+00
              MO Center= -1.2D-03,  8.4D-05, -3.4D-03, r^2= 4.8D-01
   Bfn.  Coefficient  Atom+Function         Bfn.  Coefficient  Atom+Function  
  ----- ------------  ---------------      ----- ------------  ---------------
     3     -0.641440  1 H  px                 8     -0.637881  2 H  px         
     4      0.076137  1 H  py                 9      0.056497  2 H  py         
     2     -0.028293  1 H  s          

 Vector    7  Occ=6.169951D-05  E= 0.000000D+00
              MO Center=  2.8D-05,  1.1D-04,  5.2D-04, r^2= 6.3D-01
   Bfn.  Coefficient  Atom+Function         Bfn.  Coefficient  Atom+Function  
  ----- ------------  ---------------      ----- ------------  ---------------
     5     -0.611786  1 H  pz                10      0.604593  2 H  pz         
     6      0.410164  2 H  s                  1      0.375976  1 H  s          
     7     -0.243223  2 H  s                  2     -0.158177  1 H  s          

 Vector    8  Occ=2.029297D-06  E= 0.000000D+00
              MO Center=  3.1D-04, -1.1D-03, -1.6D-02, r^2= 5.7D-01
   Bfn.  Coefficient  Atom+Function         Bfn.  Coefficient  Atom+Function  
  ----- ------------  ---------------      ----- ------------  ---------------
     4     -0.778759  1 H  py                 9      0.750524  2 H  py         
     8     -0.223842  2 H  px                 3      0.204219  1 H  px         

 Vector    9  Occ=6.104264D-05  E= 0.000000D+00
              MO Center=  1.1D-02,  2.9D-03, -3.0D-03, r^2= 5.7D-01
   Bfn.  Coefficient  Atom+Function         Bfn.  Coefficient  Atom+Function  
  ----- ------------  ---------------      ----- ------------  ---------------
     3     -0.765628  1 H  px                 8      0.764022  2 H  px         
     4     -0.217812  1 H  py                 9      0.210341  2 H  py         
     2     -0.064071  1 H  s                  7      0.040571  2 H  s          

 Vector   10  Occ=1.868648D-05  E= 0.000000D+00
              MO Center= -6.4D-04, -1.3D-03,  5.0D-03, r^2= 6.2D-01
   Bfn.  Coefficient  Atom+Function         Bfn.  Coefficient  Atom+Function  
  ----- ------------  ---------------      ----- ------------  ---------------
     5     -1.218044  1 H  pz                10     -1.221416  2 H  pz         
     1     -0.687199  1 H  s                  6      0.658838  2 H  s          
     7      0.303692  2 H  s                  2     -0.280227  1 H  s          


 Task  times  cpu:      203.9s     wall:      255.3s
 Summary of allocated global arrays
-----------------------------------
  No active global arrays



                         GA Statistics for process    0
                         ------------------------------

       create   destroy   get      put      acc     scatter   gather  read&inc
calls:   44       44     5.61e+07 2.56e+04 3.21e+04    0        0       11     
number of processes/call 1.00e+00 1.00e+00 1.00e+00 0.00e+00 0.00e+00
bytes total:             4.49e+10 2.57e+07 3.20e+07 0.00e+00 0.00e+00 8.80e+01
bytes remote:            0.00e+00 0.00e+00 0.00e+00 0.00e+00 0.00e+00 0.00e+00
Max memory consumed for GA by this process: 268000 bytes
MA_summarize_allocated_blocks: starting scan ...
MA_summarize_allocated_blocks: scan completed: 0 heap blocks, 0 stack blocks
MA usage statistics:

	allocation statistics:
					      heap	     stack
					      ----	     -----
	current number of blocks	         0	         0
	maximum number of blocks	        19	        17
	current total bytes		         0	         0
	maximum total bytes		   3205416	  22508616
	maximum total K-bytes		      3206	     22509
	maximum total M-bytes		         4	        23


                                NWChem Input Module
                                -------------------





                                     CITATION
                                     --------
                Please cite the following reference when publishing
                           results obtained with NWChem:

                 M. Valiev, E.J. Bylaska, N. Govind, K. Kowalski,
              T.P. Straatsma, H.J.J. van Dam, D. Wang, J. Nieplocha,
                        E. Apra, T.L. Windus, W.A. de Jong
                 "NWChem: a comprehensive and scalable open-source
                  solution for large scale molecular simulations"
                      Comput. Phys. Commun. 181, 1477 (2010)
                           doi:10.1016/j.cpc.2010.04.018

                                      AUTHORS
                                      -------
          E. Apra, E. J. Bylaska, W. A. de Jong, N. Govind, K. Kowalski,
       T. P. Straatsma, M. Valiev, H. J. J. van Dam, D. Wang, T. L. Windus,
        J. Hammond, J. Autschbach, K. Bhaskaran-Nair, J. Brabec, K. Lopata,
    S. A. Fischer, S. Krishnamoorthy, M. Jacquelin, W. Ma, M. Klemm, O. Villa,
      Y. Chen, V. Anisimov, F. Aquino, S. Hirata, M. T. Hackler, V. Konjkov,
      T. Risthaus, M. Malagoli, A. Marenich, A. Otero-de-la-Roza, J. Mullin,
        P. Nichols, R. Peverati, J. Pittner, Y. Zhao, P.-D. Fan, A. Fonari,
       M. Williamson, R. J. Harrison, J. R. Rehr, M. Dupuis, D. Silverstein,
    D. M. A. Smith, J. Nieplocha, V. Tipparaju, M. Krishnan, B. E. Van Kuiken,
        A. Vazquez-Mayagoitia, L. Jensen, M. Swart, Q. Wu, T. Van Voorhis,
     A. A. Auer, M. Nooijen, L. D. Crosby, E. Brown, G. Cisneros, G. I. Fann,
   H. Fruchtl, J. Garza, K. Hirao, R. A. Kendall, J. A. Nichols, K. Tsemekhman,
    K. Wolinski, J. Anchell, D. E. Bernholdt, P. Borowski, T. Clark, D. Clerc,
   H. Dachsel, M. J. O. Deegan, K. Dyall, D. Elwood, E. Glendening, M. Gutowski,
   A. C. Hess, J. Jaffe, B. G. Johnson, J. Ju, R. Kobayashi, R. Kutteh, Z. Lin,
   R. Littlefield, X. Long, B. Meng, T. Nakajima, S. Niu, L. Pollack, M. Rosing,
   K. Glaesemann, G. Sandrone, M. Stave, H. Taylor, G. Thomas, J. H. van Lenthe,
                               A. T. Wong, Z. Zhang.

 Total times  cpu:      203.9s     wall:      255.4s
