 argument  1 = input-wf.nw



============================== echo of input deck ==============================
echo
start wfn1_dat
geometry units au noautoz
  H 0 0 -1.79434600000000000000
  H 0 0  1.79434600000000000000
  symmetry cs
end
basis
  H library 6-31g**
end
set wfn1:input_vectors "atomic"
set wfn1:solver "monte-carlo"
set wfn1:print_error F
set wfn1:t_initial 0.1
#set wfn1:corr_expr "wfn1_mx"
set wfn1:corr_expr "wfn1c"
set wfn1:t_bath 0.0
set wfn1:maxit  20000
task wfn1 energy
================================================================================


                                         
                                         


              Northwest Computational Chemistry Package (NWChem) 6.8
              ------------------------------------------------------


                    Environmental Molecular Sciences Laboratory
                       Pacific Northwest National Laboratory
                                Richland, WA 99352

                              Copyright (c) 1994-2015
                       Pacific Northwest National Laboratory
                            Battelle Memorial Institute

             NWChem is an open-source computational chemistry package
                        distributed under the terms of the
                      Educational Community License (ECL) 2.0
             A copy of the license is included with this distribution
                              in the LICENSE.TXT file

                                  ACKNOWLEDGMENT
                                  --------------

            This software and its documentation were developed at the
            EMSL at Pacific Northwest National Laboratory, a multiprogram
            national laboratory, operated for the U.S. Department of Energy
            by Battelle under Contract Number DE-AC05-76RL01830. Support
            for this work was provided by the Department of Energy Office
            of Biological and Environmental Research, Office of Basic
            Energy Sciences, and the Office of Advanced Scientific Computing.


           Job information
           ---------------

    hostname        = erato
    program         = ../../../bin/LINUX64/nwchem
    date            = Mon Mar  1 18:18:42 2021

    compiled        = Sun_Feb_28_18:02:42_2021
    source          = /home/hvandam/nwchem-1-wfn1
    nwchem branch   = Development
    nwchem revision = nwchem_on_git-124-gad72d19fff205e319ffbbf2bca37a04ded6ad57b
    ga revision     = nwchem_on_git-124-gad72d19
    use scalapack   = F
    input           = input-wf.nw
    prefix          = wfn1_dat.
    data base       = ./wfn1_dat.db
    status          = startup
    nproc           =        1
    time left       =     -1s



           Memory information
           ------------------

    heap     =   13107200 doubles =    100.0 Mbytes
    stack    =   13107197 doubles =    100.0 Mbytes
    global   =   26214400 doubles =    200.0 Mbytes (distinct from heap & stack)
    total    =   52428797 doubles =    400.0 Mbytes
    verify   = yes
    hardfail = no 


           Directory information
           ---------------------

  0 permanent = .
  0 scratch   = .




                                NWChem Input Module
                                -------------------


 Turning off AUTOSYM since
 SYMMETRY directive was detected!



                             Geometry "geometry" -> ""
                             -------------------------

 Output coordinates in a.u. (scale by  1.000000000 to convert to a.u.)

  No.       Tag          Charge          X              Y              Z
 ---- ---------------- ---------- -------------- -------------- --------------
    1 H                    1.0000     0.00000000     0.00000000    -1.79434600
    2 H                    1.0000     0.00000000     0.00000000     1.79434600

      Atomic Mass 
      ----------- 

      H                  1.007825


 Effective nuclear repulsion energy (a.u.)       0.2786530580

            Nuclear Dipole moment (a.u.) 
            ----------------------------
        X                 Y               Z
 ---------------- ---------------- ----------------
     0.0000000000     0.0000000000     0.0000000000

      Symmetry information
      --------------------

 Group name             Cs        
 Group number              2
 Group order               2
 No. of unique centers     1

      Symmetry unique atoms

     1


            XYZ format geometry
            -------------------
     2
 geometry
 H                     0.00000000     0.00000000    -0.94952708
 H                     0.00000000     0.00000000     0.94952708

                      Basis "ao basis" -> "" (cartesian)
                      -----
  H (Hydrogen)
  ------------
            Exponent  Coefficients 
       -------------- ---------------------------------------------------------
  1 S  1.87311370E+01  0.033495
  1 S  2.82539370E+00  0.234727
  1 S  6.40121700E-01  0.813757

  2 S  1.61277800E-01  1.000000

  3 P  1.10000000E+00  1.000000



 Summary of "ao basis" -> "" (cartesian)
 ------------------------------------------------------------------------------
       Tag                 Description            Shells   Functions and Types
 ---------------- ------------------------------  ------  ---------------------
 H                          6-31g**                  3        5   2s1p



                                NWChem WFN1 Module
                                ------------------



          No. of electrons :     2
           Alpha electrons :     1
            Beta electrons :     1
          Charge           :     0
          Spin multiplicity:     1

 HvD: wfn1_inpdft
 HvD: nquad_task =                     1
 HvD: iangquad   =                     0
 HvD: gridtype   = user      
 HvD: leb        =  T
 HvD: radgrid    = murakn    
 HvD: trunc_neigh=  T
 HvD: lssw       =  T
 HvD: whichssw   = erf1    
 HvD: mxnrad     =                     0
 HvD: mxnang     =                     0
 HVD: wfn1: movecs_in  = atomic                                                                                                                                                                                                                                                          
 HVD: wfn1: movecs_out = ./wfn1_dat.movecs                                                                                                                                                                                                                                               

      Superposition of Atomic Density Guess
      -------------------------------------

 Sum of atomic energies:          -0.99646508

      Non-variational initial energy
      ------------------------------

 Total energy =      -0.697742
 1-e energy   =      -1.552797
 2-e energy   =       0.576402
 HOMO         =      -0.278556
 LUMO         =      -0.093735

 iteration              energy           error
 ---------              ------           -----
         0         -0.92004844        0.200000
         1         -0.92688442        0.200000
         2         -0.92765212        0.200000
         3         -0.93209744        0.200000
         4         -0.93433002        0.200000
         5         -0.93462381        0.200000
         6         -0.93469715        0.200000
         7         -0.93536703        0.200000
         8         -0.93600432        0.200000
         9         -0.93710931        0.200000
        10         -0.93721951        0.200000
        11         -0.93743164        0.200000
        12         -0.93750618        0.200000
        13         -0.93750675        0.200000
        14         -0.93756618        0.200000
        15         -0.93828640        0.200000
        16         -0.93910715        0.200000
        17         -0.93916335        0.200000
        18         -0.94004938        0.200000
        19         -0.94027226        0.200000
        20         -0.94040170        0.200000
        21         -0.94041625        0.200000
        22         -0.94061373        0.200000
        23         -0.94081284        0.200000
        24         -0.94139272        0.200000
        25         -0.94169373        0.185175
        26         -0.94170071        0.185175
        27         -0.94205898        0.185175
        28         -0.94256225        0.185175
        29         -0.94259819        0.185175
        30         -0.94263887        0.185175
        31         -0.94274578        0.185175
        32         -0.94287968        0.146973
        33         -0.94289530        0.146973
        34         -0.94357965        0.146973
        35         -0.94357968        0.125992
        36         -0.94369097        0.125992
        37         -0.94384078        0.125992
        38         -0.94392698        0.125992
        39         -0.94394867        0.100000
        40         -0.94411458        0.100000
        41         -0.94414161        0.100000
        42         -0.94419882        0.100000
        43         -0.94428229        0.100000
        44         -0.94438193        0.100000
        45         -0.94440172        0.092587
        46         -0.94441565        0.092587
        47         -0.94464888        0.092587
        48         -0.94476945        0.092587
        49         -0.94491427        0.092587
        50         -0.94495318        0.085724
        51         -0.94496164        0.085724
        52         -0.94496752        0.085724
        53         -0.94497740        0.085724
        54         -0.94500462        0.085724
        55         -0.94506267        0.085724
        56         -0.94516420        0.073487
        57         -0.94517290        0.068040
        58         -0.94520175        0.068040
        59         -0.94529346        0.068040
        60         -0.94531849        0.068040
        61         -0.94537630        0.054003
        62         -0.94539723        0.054003
        63         -0.94542171        0.054003
        64         -0.94553532        0.054003
        65         -0.94561999        0.054003
        66         -0.94564938        0.050000
        67         -0.94569070        0.050000
        68         -0.94570449        0.050000
        69         -0.94570709        0.046294
        70         -0.94572078        0.046294
        71         -0.94572119        0.046294
        72         -0.94574857        0.042862
        73         -0.94575974        0.039685
        74         -0.94580290        0.036743
        75         -0.94582611        0.036743
        76         -0.94583146        0.036743
        77         -0.94585077        0.034020
        78         -0.94585241        0.034020
        79         -0.94586798        0.034020
        80         -0.94588689        0.034020
        81         -0.94589040        0.034020
        82         -0.94589301        0.034020
        83         -0.94590045        0.034020
        84         -0.94591781        0.031498
        85         -0.94595255        0.031498
        86         -0.94597241        0.031498
        87         -0.94598070        0.029163
        88         -0.94600818        0.027001
        89         -0.94601617        0.027001
        90         -0.94603040        0.027001
        91         -0.94603660        0.027001
        92         -0.94604942        0.027001
        93         -0.94605528        0.027001
        94         -0.94609529        0.027001
        95         -0.94609627        0.027001
        96         -0.94611281        0.027001
        97         -0.94612428        0.027001
        98         -0.94613194        0.025000
        99         -0.94614015        0.023147
       100         -0.94614248        0.021431
       101         -0.94614847        0.021431
       102         -0.94615404        0.021431
       103         -0.94615947        0.021431
       104         -0.94617718        0.021431
       105         -0.94617908        0.021431
       106         -0.94617910        0.021431
       107         -0.94620219        0.021431
       108         -0.94620731        0.019843
       109         -0.94621214        0.019843
       110         -0.94622526        0.019843
       111         -0.94624084        0.019843
       112         -0.94625838        0.019843
       113         -0.94626092        0.019843
       114         -0.94627714        0.019843
       115         -0.94627738        0.018372
       116         -0.94627805        0.018372
       117         -0.94628181        0.018372
       118         -0.94628413        0.018372
       119         -0.94628579        0.017010
       120         -0.94629339        0.017010
       121         -0.94630519        0.015749
       122         -0.94630870        0.015749
       123         -0.94631139        0.015749
       124         -0.94631348        0.015749
       125         -0.94631370        0.015749
       126         -0.94633788        0.015749
       127         -0.94634541        0.015749
       128         -0.94634994        0.014582
       129         -0.94635062        0.014582
       130         -0.94635374        0.013501
       131         -0.94635592        0.013501
       132         -0.94636308        0.013501
       133         -0.94636616        0.013501
       134         -0.94636633        0.013501
       135         -0.94637440        0.013501
       136         -0.94637656        0.013501
       137         -0.94637793        0.013501
       138         -0.94637837        0.013501
       139         -0.94638014        0.012500
       140         -0.94638835        0.012500
       141         -0.94639583        0.012500
       142         -0.94640511        0.012500
       143         -0.94640896        0.012500
       144         -0.94641122        0.012500
       145         -0.94642481        0.012500
       146         -0.94642702        0.012500
       147         -0.94642839        0.012500
       148         -0.94643063        0.012500
       149         -0.94643501        0.012500
       150         -0.94643872        0.012500
       151         -0.94644440        0.012500
       152         -0.94645231        0.011573
       153         -0.94645748        0.011573
       154         -0.94645774        0.011573
       155         -0.94645789        0.011573
       156         -0.94646014        0.011573
       157         -0.94646060        0.011573
       158         -0.94646542        0.011573
       159         -0.94646941        0.011573
       160         -0.94647285        0.011573
       161         -0.94648562        0.011573
       162         -0.94648759        0.011573
       163         -0.94648896        0.011573
       164         -0.94648951        0.011573
       165         -0.94648964        0.011573
       166         -0.94649657        0.011573
       167         -0.94650145        0.011573
       168         -0.94650174        0.011573
       169         -0.94650736        0.011573
       170         -0.94651080        0.011573
       171         -0.94651345        0.011573
       172         -0.94651466        0.011573
       173         -0.94651817        0.011573
       174         -0.94652091        0.011573
       175         -0.94652192        0.011573
       176         -0.94652371        0.011573
       177         -0.94652996        0.011573
       178         -0.94653052        0.011573
       179         -0.94653092        0.011573
       180         -0.94654059        0.011573
       181         -0.94654646        0.011573
       182         -0.94654703        0.011573
       183         -0.94655355        0.011573
       184         -0.94655543        0.011573
       185         -0.94655682        0.011573
       186         -0.94655691        0.011573
       187         -0.94655960        0.011573
       188         -0.94655970        0.011573
       189         -0.94656189        0.011573
       190         -0.94656325        0.011573
       191         -0.94656659        0.011573
       192         -0.94656924        0.011573
       193         -0.94657106        0.011573
       194         -0.94657265        0.011573
       195         -0.94657816        0.011573
       196         -0.94657925        0.011573
       197         -0.94657995        0.011573
       198         -0.94658657        0.011573
       199         -0.94658852        0.011573
       200         -0.94659553        0.011573
       201         -0.94660234        0.011573
       202         -0.94660549        0.011573
       203         -0.94660608        0.011573
       204         -0.94660874        0.011573
       205         -0.94661538        0.011573
       206         -0.94661623        0.011573
       207         -0.94662278        0.011573
       208         -0.94662572        0.011573
       209         -0.94663079        0.011573
       210         -0.94663246        0.011573
       211         -0.94663668        0.011573
       212         -0.94663852        0.011573
       213         -0.94663933        0.011573
       214         -0.94664077        0.011573
       215         -0.94664189        0.011573
       216         -0.94664825        0.011573
       217         -0.94665129        0.011573
       218         -0.94665283        0.011573
       219         -0.94665500        0.011573
       220         -0.94665870        0.011573
       221         -0.94666504        0.011573
       222         -0.94666821        0.011573
       223         -0.94667002        0.011573
       224         -0.94667182        0.011573
       225         -0.94667349        0.011573
       226         -0.94668341        0.011573
       227         -0.94668469        0.011573
       228         -0.94668635        0.011573
       229         -0.94668806        0.011573
       230         -0.94668818        0.011573
       231         -0.94669928        0.011573
       232         -0.94670024        0.011573
       233         -0.94670929        0.011573
       234         -0.94670973        0.011573
       235         -0.94671351        0.011573
       236         -0.94671867        0.011573
       237         -0.94672117        0.011573
       238         -0.94672798        0.011573
       239         -0.94672887        0.011573
       240         -0.94673380        0.011573
       241         -0.94673845        0.011573
       242         -0.94674081        0.011573
       243         -0.94674342        0.011573
       244         -0.94674483        0.011573
       245         -0.94674768        0.011573
       246         -0.94675322        0.011573
       247         -0.94675399        0.011573
       248         -0.94676545        0.011573
       249         -0.94676643        0.011573
       250         -0.94676845        0.011573
       251         -0.94676940        0.011573
       252         -0.94677429        0.011573
       253         -0.94677505        0.010716
       254         -0.94677856        0.010716
       255         -0.94678040        0.010716
       256         -0.94678232        0.010716
       257         -0.94678324        0.010716
       258         -0.94679373        0.010716
       259         -0.94679384        0.010716
       260         -0.94679911        0.010716
       261         -0.94680288        0.010716
       262         -0.94680821        0.010716
       263         -0.94681106        0.010716
       264         -0.94681434        0.010716
       265         -0.94682138        0.010716
       266         -0.94682184        0.010716
       267         -0.94682312        0.010716
       268         -0.94682973        0.010716
       269         -0.94683400        0.010716
       270         -0.94683458        0.010716
       271         -0.94683837        0.010716
       272         -0.94683857        0.010716
       273         -0.94683961        0.010716
       274         -0.94684688        0.010716
       275         -0.94684866        0.010716
       276         -0.94685089        0.010716
       277         -0.94685136        0.010716
       278         -0.94685363        0.010716
       279         -0.94685382        0.010716
       280         -0.94685518        0.010716
       281         -0.94685675        0.010716
       282         -0.94685799        0.010716
       283         -0.94686076        0.010716
       284         -0.94686456        0.010716
       285         -0.94686489        0.010716
       286         -0.94686852        0.010716
       287         -0.94687062        0.010716
       288         -0.94687188        0.010716
       289         -0.94687310        0.010716
       290         -0.94687935        0.010716
       291         -0.94687973        0.010716
       292         -0.94688441        0.010716
       293         -0.94688449        0.010716
       294         -0.94688529        0.010716
       295         -0.94688866        0.010716
       296         -0.94689872        0.010716
       297         -0.94690131        0.010716
       298         -0.94690512        0.010716
       299         -0.94690651        0.010716
       300         -0.94690668        0.010716
       301         -0.94691363        0.010716
       302         -0.94691376        0.010716
       303         -0.94691436        0.010716
       304         -0.94691881        0.010716
       305         -0.94692170        0.010716
       306         -0.94692537        0.010716
       307         -0.94692582        0.010716
       308         -0.94692804        0.010716
       309         -0.94692948        0.010716
       310         -0.94692966        0.010716
       311         -0.94693206        0.010716
       312         -0.94693218        0.010716
       313         -0.94693456        0.010716
       314         -0.94693963        0.009921
       315         -0.94694278        0.009921
       316         -0.94694393        0.009921
       317         -0.94694427        0.009921
       318         -0.94695035        0.009921
       319         -0.94695511        0.009921
       320         -0.94695826        0.009921
       321         -0.94695955        0.009921
       322         -0.94696127        0.009921
       323         -0.94696973        0.009921
       324         -0.94697088        0.009921
       325         -0.94697246        0.009921
       326         -0.94697400        0.009921
       327         -0.94697514        0.009921
       328         -0.94697765        0.009921
       329         -0.94698016        0.009921
       330         -0.94698089        0.009921
       331         -0.94698099        0.009921
       332         -0.94698847        0.009186
       333         -0.94699197        0.009186
       334         -0.94699250        0.008505
       335         -0.94699268        0.008505
       336         -0.94699274        0.008505
       337         -0.94699321        0.008505
       338         -0.94699426        0.008505
       339         -0.94699453        0.008505
       340         -0.94699610        0.008505
       341         -0.94699773        0.008505
       342         -0.94699844        0.008505
       343         -0.94699989        0.008505
       344         -0.94700014        0.008505
       345         -0.94700021        0.008505
       346         -0.94700197        0.008505
       347         -0.94700587        0.008505
       348         -0.94700886        0.008505
       349         -0.94701168        0.008505
       350         -0.94701538        0.008505
       351         -0.94701720        0.008505
       352         -0.94701968        0.008505
       353         -0.94701996        0.008505
       354         -0.94702126        0.008505
       355         -0.94702274        0.007875
       356         -0.94702585        0.007875
       357         -0.94702642        0.007875
       358         -0.94702724        0.007875
       359         -0.94702930        0.007875
       360         -0.94703368        0.007875
       361         -0.94703401        0.007875
       362         -0.94703417        0.007875
       363         -0.94703498        0.007875
       364         -0.94703859        0.007875
       365         -0.94703978        0.007875
       366         -0.94703982        0.007875
       367         -0.94703992        0.007875
       368         -0.94704000        0.007875
       369         -0.94704097        0.007875
       370         -0.94704368        0.007875
       371         -0.94704402        0.007875
       372         -0.94704667        0.007875
       373         -0.94704696        0.007875
       374         -0.94704759        0.007875
       375         -0.94704978        0.007875
       376         -0.94705058        0.007875
       377         -0.94705398        0.007875
       378         -0.94705719        0.007875
       379         -0.94705835        0.007875
       380         -0.94706328        0.007875
       381         -0.94706464        0.007875
       382         -0.94706617        0.007875
       383         -0.94706694        0.007875
       384         -0.94707130        0.007875
       385         -0.94707143        0.007875
       386         -0.94707206        0.007875
       387         -0.94707435        0.007875
       388         -0.94707678        0.007875
       389         -0.94707807        0.007875
       390         -0.94708262        0.007875
       391         -0.94709059        0.007875
       392         -0.94709159        0.007875
       393         -0.94709193        0.007875
       394         -0.94709396        0.007875
       395         -0.94709578        0.007875
       396         -0.94710115        0.007875
       397         -0.94710334        0.007875
       398         -0.94710425        0.007875
       399         -0.94711274        0.007875
       400         -0.94711289        0.007875
       401         -0.94711572        0.007875
       402         -0.94711824        0.007875
       403         -0.94712166        0.007875
       404         -0.94712408        0.007875
       405         -0.94712740        0.007875
       406         -0.94713016        0.007875
       407         -0.94713095        0.007875
       408         -0.94713396        0.007875
       409         -0.94713517        0.007875
       410         -0.94713526        0.007875
       411         -0.94713564        0.007875
       412         -0.94713615        0.007875
       413         -0.94713642        0.007875
       414         -0.94713866        0.007875
       415         -0.94714437        0.007875
       416         -0.94714446        0.007291
       417         -0.94714635        0.007291
       418         -0.94714891        0.007291
       419         -0.94714931        0.007291
       420         -0.94715395        0.007291
       421         -0.94715520        0.007291
       422         -0.94715575        0.007291
       423         -0.94716010        0.007291
       424         -0.94716038        0.007291
       425         -0.94716159        0.007291
       426         -0.94716169        0.006750
       427         -0.94716177        0.006750
       428         -0.94716213        0.006750
       429         -0.94716282        0.006750
       430         -0.94716434        0.006750
       431         -0.94716564        0.006750
       432         -0.94716648        0.006750
       433         -0.94716725        0.006750
       434         -0.94716992        0.006750
       435         -0.94717105        0.006750
       436         -0.94717157        0.006750
       437         -0.94717687        0.006750
       438         -0.94718054        0.006750
       439         -0.94718058        0.006750
       440         -0.94718174        0.006750
       441         -0.94718285        0.006750
       442         -0.94718361        0.006750
       443         -0.94718580        0.006750
       444         -0.94718722        0.006750
       445         -0.94718749        0.006750
       446         -0.94719165        0.006750
       447         -0.94719183        0.006750
       448         -0.94719347        0.006750
       449         -0.94719387        0.006750
       450         -0.94719485        0.006750
       451         -0.94719591        0.006750
       452         -0.94719728        0.006750
       453         -0.94719770        0.006750
       454         -0.94720117        0.006750
       455         -0.94720290        0.006750
       456         -0.94720440        0.006750
       457         -0.94720574        0.006750
       458         -0.94720711        0.006750
       459         -0.94721013        0.006750
       460         -0.94721114        0.006750
       461         -0.94721478        0.006750
       462         -0.94721672        0.006750
       463         -0.94721673        0.006750
       464         -0.94721753        0.006750
       465         -0.94721941        0.006750
       466         -0.94721970        0.006750
       467         -0.94722286        0.006750
       468         -0.94722345        0.006750
       469         -0.94722346        0.006750
       470         -0.94722352        0.006750
       471         -0.94722407        0.006750
       472         -0.94722654        0.006750
       473         -0.94722845        0.006750
       474         -0.94723003        0.006750
       475         -0.94723024        0.006750
       476         -0.94723501        0.006750
       477         -0.94723684        0.006750
       478         -0.94723808        0.006750
       479         -0.94723991        0.006750
       480         -0.94724045        0.006750
       481         -0.94724100        0.006750
       482         -0.94724116        0.006750
       483         -0.94724174        0.006750
       484         -0.94724267        0.006750
       485         -0.94724375        0.006750
       486         -0.94724535        0.006750
       487         -0.94724816        0.006750
       488         -0.94725257        0.006750
       489         -0.94725351        0.006750
       490         -0.94725490        0.006750
       491         -0.94725553        0.006750
       492         -0.94725645        0.006750
       493         -0.94725747        0.006750
       494         -0.94725898        0.006750
       495         -0.94726325        0.006750
       496         -0.94726511        0.006750
       497         -0.94726823        0.006750
       498         -0.94727190        0.006750
       499         -0.94727340        0.006750
       500         -0.94727349        0.006750
       501         -0.94727549        0.006750
       502         -0.94727834        0.006750
       503         -0.94727850        0.006750
       504         -0.94727997        0.006750
       505         -0.94728172        0.006750
       506         -0.94728231        0.006750
       507         -0.94728349        0.006750
       508         -0.94728396        0.006750
       509         -0.94728942        0.006750
       510         -0.94729314        0.006750
       511         -0.94729496        0.006750
       512         -0.94729497        0.006750
       513         -0.94729527        0.006750
       514         -0.94729779        0.006750
       515         -0.94729823        0.006750
       516         -0.94729823        0.006750
       517         -0.94729839        0.006750
       518         -0.94730196        0.006750
       519         -0.94730272        0.006750
       520         -0.94730351        0.006750
       521         -0.94730501        0.006750
       522         -0.94730915        0.006750
       523         -0.94731114        0.006750
       524         -0.94731116        0.006750
       525         -0.94731313        0.006750
       526         -0.94731453        0.006750
       527         -0.94731678        0.006750
       528         -0.94731827        0.006250
       529         -0.94731834        0.006250
       530         -0.94732068        0.006250
       531         -0.94732184        0.006250
       532         -0.94732346        0.006250
       533         -0.94732567        0.006250
       534         -0.94732674        0.006250
       535         -0.94732822        0.006250
       536         -0.94732936        0.006250
       537         -0.94732980        0.006250
       538         -0.94733007        0.006250
       539         -0.94733125        0.006250
       540         -0.94733407        0.006250
       541         -0.94733774        0.006250
       542         -0.94733840        0.006250
       543         -0.94733971        0.006250
       544         -0.94734025        0.006250
       545         -0.94734454        0.006250
       546         -0.94734691        0.006250
       547         -0.94734854        0.006250
       548         -0.94734869        0.006250
       549         -0.94734901        0.006250
       550         -0.94735010        0.006250
       551         -0.94735046        0.006250
       552         -0.94735058        0.006250
       553         -0.94735116        0.006250
       554         -0.94735217        0.006250
       555         -0.94735361        0.006250
       556         -0.94735564        0.006250
       557         -0.94735648        0.006250
       558         -0.94735655        0.006250
       559         -0.94735921        0.006250
       560         -0.94736103        0.006250
       561         -0.94736526        0.006250
       562         -0.94736561        0.006250
       563         -0.94736659        0.006250
       564         -0.94736863        0.006250
       565         -0.94736949        0.006250
       566         -0.94737028        0.006250
       567         -0.94737232        0.006250
       568         -0.94737291        0.006250
       569         -0.94737460        0.006250
       570         -0.94737523        0.006250
       571         -0.94737673        0.006250
       572         -0.94737705        0.006250
       573         -0.94737818        0.006250
       574         -0.94737842        0.006250
       575         -0.94737987        0.006250
       576         -0.94738078        0.006250
       577         -0.94738130        0.006250
       578         -0.94738200        0.006250
       579         -0.94738426        0.006250
       580         -0.94738653        0.006250
       581         -0.94738836        0.006250
       582         -0.94738838        0.006250
       583         -0.94738855        0.006250
       584         -0.94739088        0.006250
       585         -0.94739276        0.006250
       586         -0.94739352        0.006250
       587         -0.94739573        0.006250
       588         -0.94739604        0.006250
       589         -0.94739608        0.006250
       590         -0.94739659        0.006250
       591         -0.94739922        0.006250
       592         -0.94740041        0.006250
       593         -0.94740160        0.006250
       594         -0.94740234        0.006250
       595         -0.94740346        0.006250
       596         -0.94740384        0.006250
       597         -0.94740506        0.006250
       598         -0.94740848        0.006250
       599         -0.94740877        0.006250
       600         -0.94740953        0.006250
       601         -0.94740960        0.006250
       602         -0.94741135        0.006250
       603         -0.94741178        0.006250
       604         -0.94741187        0.006250
       605         -0.94741271        0.006250
       606         -0.94741570        0.006250
       607         -0.94741575        0.006250
       608         -0.94741633        0.006250
       609         -0.94741713        0.006250
       610         -0.94741742        0.006250
       611         -0.94742133        0.006250
       612         -0.94742299        0.006250
       613         -0.94742314        0.006250
       614         -0.94742318        0.006250
       615         -0.94742500        0.005787
       616         -0.94742702        0.005787
       617         -0.94742980        0.005787
       618         -0.94743137        0.005787
       619         -0.94743332        0.005787
       620         -0.94743562        0.005787
       621         -0.94743642        0.005787
       622         -0.94743704        0.005787
       623         -0.94743718        0.005787
       624         -0.94743781        0.005787
       625         -0.94743838        0.005787
       626         -0.94744068        0.005787
       627         -0.94744463        0.005787
       628         -0.94744504        0.005787
       629         -0.94744526        0.005787
       630         -0.94744742        0.005787
       631         -0.94744794        0.005787
       632         -0.94744927        0.005787
       633         -0.94744937        0.005787
       634         -0.94745153        0.005787
       635         -0.94745271        0.005787
       636         -0.94745461        0.005787
       637         -0.94745557        0.005787
       638         -0.94745614        0.005787
       639         -0.94745736        0.005787
       640         -0.94745789        0.005787
       641         -0.94745884        0.005787
       642         -0.94745912        0.005787
       643         -0.94745991        0.005787
       644         -0.94746042        0.005787
       645         -0.94746254        0.005787
       646         -0.94746493        0.005787
       647         -0.94746498        0.005787
       648         -0.94746592        0.005787
       649         -0.94746819        0.005787
       650         -0.94746911        0.005787
       651         -0.94747065        0.005787
       652         -0.94747207        0.005787
       653         -0.94747218        0.005787
       654         -0.94747350        0.005787
       655         -0.94747478        0.005787
       656         -0.94747515        0.005787
       657         -0.94747596        0.005787
       658         -0.94747621        0.005787
       659         -0.94747756        0.005787
       660         -0.94747875        0.005787
       661         -0.94747882        0.005787
       662         -0.94748041        0.005787
       663         -0.94748062        0.005787
       664         -0.94748215        0.005787
       665         -0.94748270        0.005787
       666         -0.94748322        0.005787
       667         -0.94748423        0.005787
       668         -0.94748477        0.005787
       669         -0.94748574        0.005787
       670         -0.94748700        0.005787
       671         -0.94748748        0.005787
       672         -0.94748843        0.005787
       673         -0.94748888        0.005787
       674         -0.94748939        0.005787
       675         -0.94749014        0.005787
       676         -0.94749094        0.005787
       677         -0.94749190        0.005787
       678         -0.94749215        0.005787
       679         -0.94749303        0.005787
       680         -0.94749387        0.005787
       681         -0.94749425        0.005787
       682         -0.94749430        0.005787
       683         -0.94749476        0.005787
       684         -0.94749591        0.005787
       685         -0.94749647        0.005787
       686         -0.94749721        0.005787
       687         -0.94749870        0.005787
       688         -0.94749877        0.005787
       689         -0.94750050        0.005787
       690         -0.94750106        0.005787
       691         -0.94750156        0.005787
       692         -0.94750274        0.005787
       693         -0.94750300        0.005787
       694         -0.94750366        0.005787
       695         -0.94750398        0.005787
       696         -0.94750554        0.005787
       697         -0.94750579        0.005787
       698         -0.94750675        0.005787
       699         -0.94750744        0.005787
       700         -0.94750772        0.005787
       701         -0.94750781        0.005787
       702         -0.94750860        0.005787
       703         -0.94750932        0.005787
       704         -0.94751010        0.005787
       705         -0.94751134        0.005787
       706         -0.94751274        0.005787
       707         -0.94751565        0.005787
       708         -0.94751801        0.005787
       709         -0.94751961        0.005787
       710         -0.94752016        0.005787
       711         -0.94752109        0.005787
       712         -0.94752183        0.005787
       713         -0.94752286        0.005787
       714         -0.94752347        0.005787
       715         -0.94752553        0.005787
       716         -0.94752558        0.005787
       717         -0.94752616        0.005787
       718         -0.94752687        0.005787
       719         -0.94752782        0.005787
       720         -0.94752844        0.005787
       721         -0.94752928        0.005787
       722         -0.94752948        0.005787
       723         -0.94753050        0.005787
       724         -0.94753093        0.005787
       725         -0.94753108        0.005787
       726         -0.94753165        0.005787
       727         -0.94753226        0.005787
       728         -0.94753417        0.005787
       729         -0.94753678        0.005787
       730         -0.94753744        0.005787
       731         -0.94753794        0.005787
       732         -0.94753817        0.005787
       733         -0.94753969        0.005787
       734         -0.94754016        0.005787
       735         -0.94754083        0.005787
       736         -0.94754138        0.005787
       737         -0.94754183        0.005787
       738         -0.94754213        0.005787
       739         -0.94754313        0.005787
       740         -0.94754413        0.005787
       741         -0.94754506        0.005787
       742         -0.94754643        0.005787
       743         -0.94754748        0.005787
       744         -0.94754768        0.005787
       745         -0.94754812        0.005787
       746         -0.94754878        0.005787
       747         -0.94755028        0.005787
       748         -0.94755042        0.005787
       749         -0.94755215        0.005787
       750         -0.94755375        0.005787
       751         -0.94755536        0.005787
       752         -0.94755639        0.005787
       753         -0.94755644        0.005787
       754         -0.94755681        0.005787
       755         -0.94755757        0.005787
       756         -0.94755903        0.005787
       757         -0.94756157        0.005787
       758         -0.94756316        0.005787
       759         -0.94756449        0.005787
       760         -0.94756602        0.005787
       761         -0.94756705        0.005787
       762         -0.94756787        0.005787
       763         -0.94756896        0.005787
       764         -0.94756955        0.005787
       765         -0.94757106        0.005787
       766         -0.94757189        0.005787
       767         -0.94757218        0.005787
       768         -0.94757537        0.005787
       769         -0.94757756        0.005787
       770         -0.94757829        0.005787
       771         -0.94757909        0.005787
       772         -0.94757928        0.005787
       773         -0.94758022        0.005358
       774         -0.94758247        0.005358
       775         -0.94758249        0.005358
       776         -0.94758420        0.005358
       777         -0.94758455        0.005358
       778         -0.94758528        0.005358
       779         -0.94758636        0.005358
       780         -0.94758649        0.005358
       781         -0.94758804        0.005358
       782         -0.94758878        0.005358
       783         -0.94759024        0.005358
       784         -0.94759079        0.005358
       785         -0.94759120        0.005358
       786         -0.94759170        0.005358
       787         -0.94759326        0.004961
       788         -0.94759334        0.004961
       789         -0.94759529        0.004961
       790         -0.94759601        0.004961
       791         -0.94759808        0.004961
       792         -0.94759851        0.004961
       793         -0.94760036        0.004961
       794         -0.94760168        0.004961
       795         -0.94760291        0.004961
       796         -0.94760347        0.004961
       797         -0.94760411        0.004961
       798         -0.94760515        0.004961
       799         -0.94760693        0.004961
       800         -0.94760792        0.004961
       801         -0.94760815        0.004961
       802         -0.94760940        0.004961
       803         -0.94761151        0.004961
       804         -0.94761200        0.004961
       805         -0.94761209        0.004961
       806         -0.94761335        0.004961
       807         -0.94761591        0.004961
       808         -0.94761628        0.004961
       809         -0.94761682        0.004961
       810         -0.94761746        0.004961
       811         -0.94761771        0.004961
       812         -0.94761951        0.004961
       813         -0.94761986        0.004961
       814         -0.94762078        0.004961
       815         -0.94762178        0.004961
       816         -0.94762280        0.004961
       817         -0.94762308        0.004961
       818         -0.94762386        0.004961
       819         -0.94762399        0.004961
       820         -0.94762412        0.004961
       821         -0.94762428        0.004961
       822         -0.94762436        0.004961
       823         -0.94762597        0.004961
       824         -0.94762796        0.004961
       825         -0.94762881        0.004961
       826         -0.94762915        0.004961
       827         -0.94762997        0.004961
       828         -0.94763076        0.004961
       829         -0.94763323        0.004961
       830         -0.94763571        0.004961
       831         -0.94763611        0.004961
       832         -0.94763671        0.004961
       833         -0.94763768        0.004961
       834         -0.94763853        0.004961
       835         -0.94763887        0.004961
       836         -0.94763960        0.004961
       837         -0.94764047        0.004961
       838         -0.94764061        0.004961
       839         -0.94764172        0.004961
       840         -0.94764195        0.004961
       841         -0.94764244        0.004961
       842         -0.94764288        0.004961
       843         -0.94764333        0.004961
       844         -0.94764344        0.004961
       845         -0.94764367        0.004961
       846         -0.94764431        0.004961
       847         -0.94764551        0.004961
       848         -0.94764553        0.004961
       849         -0.94764718        0.004961
       850         -0.94764746        0.004961
       851         -0.94764786        0.004961
       852         -0.94764826        0.004961
       853         -0.94764869        0.004961
       854         -0.94764931        0.004961
       855         -0.94765112        0.004961
       856         -0.94765146        0.004961
       857         -0.94765164        0.004961
       858         -0.94765211        0.004961
       859         -0.94765259        0.004961
       860         -0.94765265        0.004961
       861         -0.94765359        0.004961
       862         -0.94765486        0.004961
       863         -0.94765496        0.004961
       864         -0.94765602        0.004961
       865         -0.94765641        0.004961
       866         -0.94765672        0.004961
       867         -0.94765683        0.004961
       868         -0.94765766        0.004961
       869         -0.94765802        0.004961
       870         -0.94765849        0.004961
       871         -0.94766129        0.004961
       872         -0.94766220        0.004961
       873         -0.94766232        0.004961
       874         -0.94766289        0.004961
       875         -0.94766349        0.004961
       876         -0.94766415        0.004961
       877         -0.94766461        0.004961
       878         -0.94766537        0.004961
       879         -0.94766602        0.004961
       880         -0.94766649        0.004961
       881         -0.94766783        0.004961
       882         -0.94767039        0.004961
       883         -0.94767120        0.004961
       884         -0.94767168        0.004961
       885         -0.94767175        0.004961
       886         -0.94767376        0.004961
       887         -0.94767429        0.004961
       888         -0.94767506        0.004961
       889         -0.94767677        0.004961
       890         -0.94767678        0.004961
       891         -0.94767692        0.004961
       892         -0.94767875        0.004961
       893         -0.94768023        0.004961
       894         -0.94768047        0.004961
       895         -0.94768048        0.004961
       896         -0.94768084        0.004961
       897         -0.94768113        0.004961
       898         -0.94768192        0.004961
       899         -0.94768305        0.004961
       900         -0.94768331        0.004961
       901         -0.94768448        0.004961
       902         -0.94768464        0.004961
       903         -0.94768468        0.004961
       904         -0.94768586        0.004961
       905         -0.94768651        0.004961
       906         -0.94768763        0.004961
       907         -0.94768989        0.004961
       908         -0.94769185        0.004961
       909         -0.94769318        0.004961
       910         -0.94769385        0.004961
       911         -0.94769512        0.004593
       912         -0.94769514        0.004593
       913         -0.94769546        0.004593
       914         -0.94769548        0.004593
       915         -0.94769577        0.004593
       916         -0.94769590        0.004593
       917         -0.94769599        0.004593
       918         -0.94769619        0.004593
       919         -0.94769671        0.004593
       920         -0.94769773        0.004593
       921         -0.94769865        0.004593
       922         -0.94769970        0.004593
       923         -0.94769983        0.004593
       924         -0.94770036        0.004593
       925         -0.94770145        0.004593
       926         -0.94770245        0.004593
       927         -0.94770381        0.004593
       928         -0.94770545        0.004593
       929         -0.94770585        0.004593
       930         -0.94770659        0.004593
       931         -0.94770692        0.004593
       932         -0.94770723        0.004593
       933         -0.94770760        0.004593
       934         -0.94770761        0.004593
       935         -0.94770792        0.004593
       936         -0.94770863        0.004593
       937         -0.94770960        0.004593
       938         -0.94770982        0.004593
       939         -0.94771018        0.004593
       940         -0.94771115        0.004593
       941         -0.94771240        0.004593
       942         -0.94771259        0.004593
       943         -0.94771356        0.004593
       944         -0.94771360        0.004593
       945         -0.94771425        0.004593
       946         -0.94771431        0.004593
       947         -0.94771534        0.004593
       948         -0.94771555        0.004593
       949         -0.94771611        0.004593
       950         -0.94771716        0.004593
       951         -0.94771757        0.004593
       952         -0.94771824        0.004593
       953         -0.94771887        0.004593
       954         -0.94771917        0.004593
       955         -0.94772014        0.004593
       956         -0.94772081        0.004593
       957         -0.94772212        0.004593
       958         -0.94772290        0.004593
       959         -0.94772291        0.004593
       960         -0.94772396        0.004593
       961         -0.94772504        0.004593
       962         -0.94772528        0.004593
       963         -0.94772668        0.004593
       964         -0.94772787        0.004593
       965         -0.94772789        0.004593
       966         -0.94772890        0.004593
       967         -0.94772897        0.004593
       968         -0.94772908        0.004252
       969         -0.94772924        0.004252
       970         -0.94773045        0.004252
       971         -0.94773100        0.004252
       972         -0.94773160        0.004252
       973         -0.94773174        0.004252
       974         -0.94773221        0.004252
       975         -0.94773363        0.004252
       976         -0.94773391        0.004252
       977         -0.94773472        0.004252
       978         -0.94773596        0.004252
       979         -0.94773606        0.004252
       980         -0.94773739        0.004252
       981         -0.94773745        0.004252
       982         -0.94773773        0.004252
       983         -0.94773876        0.004252
       984         -0.94774045        0.004252
       985         -0.94774083        0.004252
       986         -0.94774353        0.004252
       987         -0.94774357        0.004252
       988         -0.94774432        0.004252
       989         -0.94774580        0.004252
       990         -0.94774634        0.004252
       991         -0.94774677        0.004252
       992         -0.94774750        0.004252
       993         -0.94774770        0.004252
       994         -0.94774818        0.004252
       995         -0.94774885        0.004252
       996         -0.94774896        0.004252
       997         -0.94774959        0.004252
       998         -0.94774984        0.004252
       999         -0.94775101        0.004252
      1000         -0.94775158        0.004252
      1001         -0.94775226        0.004252
      1002         -0.94775349        0.004252
      1003         -0.94775370        0.004252
      1004         -0.94775395        0.004252
      1005         -0.94775440        0.004252
      1006         -0.94775534        0.004252
      1007         -0.94775543        0.004252
      1008         -0.94775547        0.004252
      1009         -0.94775582        0.004252
      1010         -0.94775594        0.004252
      1011         -0.94775726        0.004252
      1012         -0.94775837        0.004252
      1013         -0.94775854        0.004252
      1014         -0.94775879        0.004252
      1015         -0.94775900        0.004252
      1016         -0.94775908        0.004252
      1017         -0.94775980        0.004252
      1018         -0.94776011        0.004252
      1019         -0.94776060        0.004252
      1020         -0.94776068        0.004252
      1021         -0.94776105        0.004252
      1022         -0.94776106        0.004252
      1023         -0.94776132        0.004252
      1024         -0.94776139        0.004252
      1025         -0.94776248        0.004252
      1026         -0.94776256        0.004252
      1027         -0.94776281        0.004252
      1028         -0.94776284        0.004252
      1029         -0.94776286        0.004252
      1030         -0.94776378        0.004252
      1031         -0.94776432        0.004252
      1032         -0.94776455        0.004252
      1033         -0.94776556        0.004252
      1034         -0.94776589        0.004252
      1035         -0.94776687        0.004252
      1036         -0.94776719        0.004252
      1037         -0.94776819        0.004252
      1038         -0.94776831        0.004252
      1039         -0.94776840        0.004252
      1040         -0.94776914        0.004252
      1041         -0.94776956        0.004252
      1042         -0.94777048        0.004252
      1043         -0.94777077        0.004252
      1044         -0.94777091        0.004252
      1045         -0.94777092        0.004252
      1046         -0.94777095        0.004252
      1047         -0.94777177        0.004252
      1048         -0.94777196        0.004252
      1049         -0.94777201        0.004252
      1050         -0.94777330        0.004252
      1051         -0.94777424        0.004252
      1052         -0.94777452        0.004252
      1053         -0.94777463        0.004252
      1054         -0.94777467        0.004252
      1055         -0.94777495        0.004252
      1056         -0.94777554        0.004252
      1057         -0.94777582        0.004252
      1058         -0.94777589        0.004252
      1059         -0.94777629        0.004252
      1060         -0.94777675        0.003937
      1061         -0.94777712        0.003937
      1062         -0.94777869        0.003937
      1063         -0.94777952        0.003937
      1064         -0.94777987        0.003937
      1065         -0.94778040        0.003937
      1066         -0.94778043        0.003937
      1067         -0.94778055        0.003937
      1068         -0.94778224        0.003937
      1069         -0.94778248        0.003937
      1070         -0.94778304        0.003937
      1071         -0.94778374        0.003937
      1072         -0.94778412        0.003937
      1073         -0.94778449        0.003937
      1074         -0.94778570        0.003937
      1075         -0.94778582        0.003937
      1076         -0.94778588        0.003937
      1077         -0.94778611        0.003937
      1078         -0.94778699        0.003937
      1079         -0.94778838        0.003937
      1080         -0.94778841        0.003937
      1081         -0.94778846        0.003937
      1082         -0.94778938        0.003937
      1083         -0.94779022        0.003937
      1084         -0.94779031        0.003937
      1085         -0.94779036        0.003937
      1086         -0.94779089        0.003937
      1087         -0.94779195        0.003937
      1088         -0.94779230        0.003937
      1089         -0.94779231        0.003937
      1090         -0.94779259        0.003937
      1091         -0.94779334        0.003937
      1092         -0.94779346        0.003937
      1093         -0.94779356        0.003937
      1094         -0.94779378        0.003937
      1095         -0.94779440        0.003937
      1096         -0.94779505        0.003937
      1097         -0.94779620        0.003937
      1098         -0.94779683        0.003937
      1099         -0.94779702        0.003937
      1100         -0.94779735        0.003937
      1101         -0.94779769        0.003937
      1102         -0.94779854        0.003937
      1103         -0.94779863        0.003937
      1104         -0.94779877        0.003937
      1105         -0.94779907        0.003937
      1106         -0.94780017        0.003937
      1107         -0.94780048        0.003937
      1108         -0.94780104        0.003937
      1109         -0.94780118        0.003937
      1110         -0.94780127        0.003937
      1111         -0.94780201        0.003937
      1112         -0.94780307        0.003937
      1113         -0.94780323        0.003937
      1114         -0.94780337        0.003937
      1115         -0.94780362        0.003937
      1116         -0.94780449        0.003937
      1117         -0.94780464        0.003937
      1118         -0.94780471        0.003937
      1119         -0.94780497        0.003937
      1120         -0.94780513        0.003937
      1121         -0.94780599        0.003937
      1122         -0.94780637        0.003937
      1123         -0.94780677        0.003937
      1124         -0.94780692        0.003937
      1125         -0.94780706        0.003937
      1126         -0.94780757        0.003937
      1127         -0.94780784        0.003937
      1128         -0.94780920        0.003937
      1129         -0.94781015        0.003937
      1130         -0.94781055        0.003937
      1131         -0.94781073        0.003937
      1132         -0.94781130        0.003937
      1133         -0.94781183        0.003937
      1134         -0.94781218        0.003937
      1135         -0.94781271        0.003937
      1136         -0.94781287        0.003937
      1137         -0.94781374        0.003937
      1138         -0.94781453        0.003937
      1139         -0.94781496        0.003937
      1140         -0.94781552        0.003937
      1141         -0.94781555        0.003937
      1142         -0.94781718        0.003937
      1143         -0.94781754        0.003937
      1144         -0.94781813        0.003937
      1145         -0.94781862        0.003937
      1146         -0.94781893        0.003937
      1147         -0.94781974        0.003937
      1148         -0.94781995        0.003937
      1149         -0.94782018        0.003937
      1150         -0.94782141        0.003937
      1151         -0.94782237        0.003937
      1152         -0.94782365        0.003937
      1153         -0.94782398        0.003937
      1154         -0.94782488        0.003937
      1155         -0.94782634        0.003937
      1156         -0.94782651        0.003937
      1157         -0.94782761        0.003937
      1158         -0.94782804        0.003937
      1159         -0.94782825        0.003937
      1160         -0.94782838        0.003937
      1161         -0.94782855        0.003937
      1162         -0.94782869        0.003937
      1163         -0.94782875        0.003937
      1164         -0.94782878        0.003937
      1165         -0.94782927        0.003937
      1166         -0.94782957        0.003937
      1167         -0.94782994        0.003937
      1168         -0.94783003        0.003937
      1169         -0.94783121        0.003937
      1170         -0.94783164        0.003937
      1171         -0.94783227        0.003937
      1172         -0.94783246        0.003937
      1173         -0.94783271        0.003937
      1174         -0.94783273        0.003937
      1175         -0.94783274        0.003937
      1176         -0.94783336        0.003937
      1177         -0.94783341        0.003937
      1178         -0.94783397        0.003937
      1179         -0.94783453        0.003937
      1180         -0.94783489        0.003937
      1181         -0.94783514        0.003937
      1182         -0.94783601        0.003937
      1183         -0.94783744        0.003937
      1184         -0.94783757        0.003937
      1185         -0.94783795        0.003937
      1186         -0.94783883        0.003937
      1187         -0.94783953        0.003937
      1188         -0.94783997        0.003937
      1189         -0.94784033        0.003937
      1190         -0.94784050        0.003937
      1191         -0.94784052        0.003937
      1192         -0.94784152        0.003937
      1193         -0.94784219        0.003937
      1194         -0.94784233        0.003937
      1195         -0.94784262        0.003937
      1196         -0.94784418        0.003937
      1197         -0.94784504        0.003937
      1198         -0.94784594        0.003937
      1199         -0.94784603        0.003937
      1200         -0.94784658        0.003937
      1201         -0.94784738        0.003937
      1202         -0.94784833        0.003937
      1203         -0.94784836        0.003937
      1204         -0.94784936        0.003937
      1205         -0.94784963        0.003937
      1206         -0.94784978        0.003937
      1207         -0.94785113        0.003937
      1208         -0.94785183        0.003937
      1209         -0.94785192        0.003937
      1210         -0.94785194        0.003937
      1211         -0.94785230        0.003937
      1212         -0.94785297        0.003937
      1213         -0.94785307        0.003937
      1214         -0.94785310        0.003937
      1215         -0.94785378        0.003937
      1216         -0.94785393        0.003937
      1217         -0.94785495        0.003937
      1218         -0.94785512        0.003937
      1219         -0.94785548        0.003937
      1220         -0.94785571        0.003937
      1221         -0.94785588        0.003937
      1222         -0.94785607        0.003937
      1223         -0.94785645        0.003937
      1224         -0.94785681        0.003937
      1225         -0.94785722        0.003937
      1226         -0.94785817        0.003937
      1227         -0.94785835        0.003937
      1228         -0.94785872        0.003937
      1229         -0.94785945        0.003937
      1230         -0.94785952        0.003937
      1231         -0.94785964        0.003937
      1232         -0.94786011        0.003937
      1233         -0.94786106        0.003937
      1234         -0.94786181        0.003937
      1235         -0.94786222        0.003937
      1236         -0.94786254        0.003937
      1237         -0.94786269        0.003937
      1238         -0.94786273        0.003937
      1239         -0.94786316        0.003937
      1240         -0.94786475        0.003937
      1241         -0.94786549        0.003937
      1242         -0.94786640        0.003937
      1243         -0.94786656        0.003937
      1244         -0.94786685        0.003937
      1245         -0.94786711        0.003937
      1246         -0.94786758        0.003937
      1247         -0.94786816        0.003937
      1248         -0.94786853        0.003937
      1249         -0.94786868        0.003937
      1250         -0.94786885        0.003937
      1251         -0.94786947        0.003937
      1252         -0.94786973        0.003937
      1253         -0.94787039        0.003937
      1254         -0.94787113        0.003937
      1255         -0.94787129        0.003937
      1256         -0.94787239        0.003937
      1257         -0.94787333        0.003937
      1258         -0.94787391        0.003937
      1259         -0.94787428        0.003937
      1260         -0.94787431        0.003937
      1261         -0.94787437        0.003937
      1262         -0.94787512        0.003937
      1263         -0.94787514        0.003937
      1264         -0.94787655        0.003937
      1265         -0.94787660        0.003937
      1266         -0.94787758        0.003937
      1267         -0.94787836        0.003937
      1268         -0.94787880        0.003937
      1269         -0.94787914        0.003937
      1270         -0.94787918        0.003937
      1271         -0.94787956        0.003937
      1272         -0.94787964        0.003937
      1273         -0.94788020        0.003937
      1274         -0.94788051        0.003937
      1275         -0.94788155        0.003937
      1276         -0.94788167        0.003937
      1277         -0.94788216        0.003937
      1278         -0.94788264        0.003937
      1279         -0.94788285        0.003937
      1280         -0.94788315        0.003937
      1281         -0.94788345        0.003937
      1282         -0.94788351        0.003937
      1283         -0.94788353        0.003937
      1284         -0.94788378        0.003937
      1285         -0.94788396        0.003937
      1286         -0.94788397        0.003937
      1287         -0.94788462        0.003937
      1288         -0.94788594        0.003937
      1289         -0.94788694        0.003937
      1290         -0.94788748        0.003937
      1291         -0.94788879        0.003937
      1292         -0.94789078        0.003937
      1293         -0.94789106        0.003937
      1294         -0.94789245        0.003937
      1295         -0.94789293        0.003937
      1296         -0.94789309        0.003937
      1297         -0.94789341        0.003937
      1298         -0.94789358        0.003937
      1299         -0.94789363        0.003937
      1300         -0.94789429        0.003937
      1301         -0.94789495        0.003937
      1302         -0.94789514        0.003937
      1303         -0.94789576        0.003937
      1304         -0.94789581        0.003937
      1305         -0.94789654        0.003937
      1306         -0.94789690        0.003937
      1307         -0.94789691        0.003937
      1308         -0.94789696        0.003937
      1309         -0.94789748        0.003937
      1310         -0.94789749        0.003937
      1311         -0.94789767        0.003645
      1312         -0.94789793        0.003645
      1313         -0.94789834        0.003645
      1314         -0.94789852        0.003645
      1315         -0.94789899        0.003645
      1316         -0.94789922        0.003645
      1317         -0.94789952        0.003645
      1318         -0.94790030        0.003645
      1319         -0.94790134        0.003645
      1320         -0.94790141        0.003645
      1321         -0.94790285        0.003645
      1322         -0.94790303        0.003645
      1323         -0.94790358        0.003645
      1324         -0.94790370        0.003645
      1325         -0.94790386        0.003645
      1326         -0.94790440        0.003645
      1327         -0.94790469        0.003645
      1328         -0.94790493        0.003645
      1329         -0.94790526        0.003645
      1330         -0.94790534        0.003645
      1331         -0.94790557        0.003645
      1332         -0.94790579        0.003645
      1333         -0.94790609        0.003645
      1334         -0.94790655        0.003645
      1335         -0.94790782        0.003645
      1336         -0.94790814        0.003645
      1337         -0.94790858        0.003645
      1338         -0.94790859        0.003645
      1339         -0.94790864        0.003645
      1340         -0.94790913        0.003645
      1341         -0.94790943        0.003645
      1342         -0.94790968        0.003645
      1343         -0.94791034        0.003645
      1344         -0.94791101        0.003645
      1345         -0.94791177        0.003645
      1346         -0.94791212        0.003645
      1347         -0.94791249        0.003645
      1348         -0.94791266        0.003645
      1349         -0.94791311        0.003645
      1350         -0.94791358        0.003645
      1351         -0.94791408        0.003645
      1352         -0.94791412        0.003645
      1353         -0.94791431        0.003645
      1354         -0.94791511        0.003645
      1355         -0.94791567        0.003645
      1356         -0.94791602        0.003645
      1357         -0.94791623        0.003645
      1358         -0.94791646        0.003645
      1359         -0.94791700        0.003645
      1360         -0.94791743        0.003645
      1361         -0.94791749        0.003645
      1362         -0.94791842        0.003645
      1363         -0.94791913        0.003645
      1364         -0.94791918        0.003645
      1365         -0.94791935        0.003645
      1366         -0.94791945        0.003645
      1367         -0.94792022        0.003645
      1368         -0.94792098        0.003645
      1369         -0.94792100        0.003645
      1370         -0.94792138        0.003645
      1371         -0.94792215        0.003645
      1372         -0.94792217        0.003645
      1373         -0.94792234        0.003645
      1374         -0.94792315        0.003645
      1375         -0.94792342        0.003645
      1376         -0.94792349        0.003645
      1377         -0.94792400        0.003645
      1378         -0.94792425        0.003645
      1379         -0.94792440        0.003645
      1380         -0.94792636        0.003645
      1381         -0.94792641        0.003645
      1382         -0.94792675        0.003645
      1383         -0.94792682        0.003645
      1384         -0.94792737        0.003645
      1385         -0.94792752        0.003645
      1386         -0.94792850        0.003645
      1387         -0.94792865        0.003645
      1388         -0.94792895        0.003645
      1389         -0.94792961        0.003645
      1390         -0.94792967        0.003645
      1391         -0.94792978        0.003645
      1392         -0.94793052        0.003645
      1393         -0.94793081        0.003645
      1394         -0.94793088        0.003645
      1395         -0.94793123        0.003645
      1396         -0.94793237        0.003645
      1397         -0.94793295        0.003645
      1398         -0.94793327        0.003645
      1399         -0.94793347        0.003645
      1400         -0.94793397        0.003645
      1401         -0.94793409        0.003645
      1402         -0.94793450        0.003645
      1403         -0.94793551        0.003645
      1404         -0.94793586        0.003645
      1405         -0.94793600        0.003645
      1406         -0.94793632        0.003645
      1407         -0.94793725        0.003645
      1408         -0.94793735        0.003645
      1409         -0.94793807        0.003645
      1410         -0.94793839        0.003645
      1411         -0.94793865        0.003645
      1412         -0.94793957        0.003645
      1413         -0.94794002        0.003375
      1414         -0.94794052        0.003375
      1415         -0.94794069        0.003375
      1416         -0.94794121        0.003375
      1417         -0.94794122        0.003375
      1418         -0.94794157        0.003375
      1419         -0.94794158        0.003375
      1420         -0.94794162        0.003375
      1421         -0.94794198        0.003375
      1422         -0.94794225        0.003375
      1423         -0.94794226        0.003375
      1424         -0.94794246        0.003375
      1425         -0.94794313        0.003375
      1426         -0.94794360        0.003375
      1427         -0.94794361        0.003375
      1428         -0.94794372        0.003375
      1429         -0.94794411        0.003375
      1430         -0.94794556        0.003375
      1431         -0.94794559        0.003375
      1432         -0.94794595        0.003375
      1433         -0.94794637        0.003375
      1434         -0.94794677        0.003375
      1435         -0.94794725        0.003375
      1436         -0.94794726        0.003375
      1437         -0.94794741        0.003375
      1438         -0.94794763        0.003375
      1439         -0.94794763        0.003375
      1440         -0.94794778        0.003375
      1441         -0.94794791        0.003375
      1442         -0.94794865        0.003375
      1443         -0.94794920        0.003375
      1444         -0.94794955        0.003375
      1445         -0.94795001        0.003375
      1446         -0.94795044        0.003375
      1447         -0.94795093        0.003375
      1448         -0.94795129        0.003375
      1449         -0.94795151        0.003375
      1450         -0.94795170        0.003375
      1451         -0.94795244        0.003375
      1452         -0.94795334        0.003375
      1453         -0.94795385        0.003375
      1454         -0.94795386        0.003375
      1455         -0.94795462        0.003375
      1456         -0.94795531        0.003375
      1457         -0.94795552        0.003375
      1458         -0.94795578        0.003375
      1459         -0.94795582        0.003375
      1460         -0.94795607        0.003375
      1461         -0.94795617        0.003375
      1462         -0.94795664        0.003375
      1463         -0.94795688        0.003375
      1464         -0.94795731        0.003375
      1465         -0.94795732        0.003375
      1466         -0.94795753        0.003375
      1467         -0.94795767        0.003375
      1468         -0.94795830        0.003375
      1469         -0.94795840        0.003375
      1470         -0.94795869        0.003375
      1471         -0.94795876        0.003375
      1472         -0.94795876        0.003375
      1473         -0.94795913        0.003375
      1474         -0.94795945        0.003375
      1475         -0.94795997        0.003375
      1476         -0.94796036        0.003375
      1477         -0.94796038        0.003375
      1478         -0.94796073        0.003375
      1479         -0.94796088        0.003375
      1480         -0.94796147        0.003375
      1481         -0.94796260        0.003375
      1482         -0.94796289        0.003375
      1483         -0.94796293        0.003375
      1484         -0.94796379        0.003375
      1485         -0.94796392        0.003375
      1486         -0.94796430        0.003375
      1487         -0.94796456        0.003375
      1488         -0.94796470        0.003375
      1489         -0.94796521        0.003375
      1490         -0.94796521        0.003375
      1491         -0.94796527        0.003375
      1492         -0.94796551        0.003375
      1493         -0.94796631        0.003375
      1494         -0.94796650        0.003375
      1495         -0.94796657        0.003375
      1496         -0.94796714        0.003375
      1497         -0.94796809        0.003375
      1498         -0.94796899        0.003375
      1499         -0.94796939        0.003375
      1500         -0.94796944        0.003375
      1501         -0.94796948        0.003375
      1502         -0.94796964        0.003375
      1503         -0.94796989        0.003375
      1504         -0.94797017        0.003375
      1505         -0.94797021        0.003375
      1506         -0.94797069        0.003375
      1507         -0.94797102        0.003375
      1508         -0.94797151        0.003375
      1509         -0.94797168        0.003375
      1510         -0.94797203        0.003375
      1511         -0.94797235        0.003375
      1512         -0.94797305        0.003375
      1513         -0.94797310        0.003375
      1514         -0.94797315        0.003375
      1515         -0.94797329        0.003375
      1516         -0.94797337        0.003375
      1517         -0.94797350        0.003375
      1518         -0.94797368        0.003375
      1519         -0.94797409        0.003375
      1520         -0.94797451        0.003375
      1521         -0.94797454        0.003375
      1522         -0.94797457        0.003375
      1523         -0.94797526        0.003375
      1524         -0.94797584        0.003375
      1525         -0.94797621        0.003375
      1526         -0.94797741        0.003375
      1527         -0.94797743        0.003375
      1528         -0.94797853        0.003375
      1529         -0.94797873        0.003375
      1530         -0.94797896        0.003375
      1531         -0.94797905        0.003375
      1532         -0.94797906        0.003375
      1533         -0.94797976        0.003375
      1534         -0.94798003        0.003375
      1535         -0.94798045        0.003375
      1536         -0.94798088        0.003375
      1537         -0.94798112        0.003375
      1538         -0.94798134        0.003375
      1539         -0.94798174        0.003375
      1540         -0.94798198        0.003375
      1541         -0.94798239        0.003375
      1542         -0.94798249        0.003375
      1543         -0.94798306        0.003375
      1544         -0.94798355        0.003375
      1545         -0.94798390        0.003375
      1546         -0.94798392        0.003375
      1547         -0.94798456        0.003375
      1548         -0.94798456        0.003375
      1549         -0.94798469        0.003375
      1550         -0.94798493        0.003375
      1551         -0.94798558        0.003375
[...]
   4       0.02484,    0.02635    -0.00997,   -0.01463     0.48750,   -0.44469    -0.54962,    0.50119    -0.06960,    0.00523     0.01520,   -0.00059
   5      -0.00123,    0.02608    -0.03614,    0.02635    -0.04068,   -0.00699     0.02315,   -0.03519    -0.39537,   -0.32149    -0.30381,   -0.29471
   6       0.00416,   -0.02340    -0.02429,    0.00970     0.03986,   -0.04225     0.03595,   -0.02771    -0.30439,   -0.32484    -0.36939,   -0.38966
   7       0.00374,    0.02380    -0.02330,    0.03854    -0.04181,   -0.01403     0.04535,   -0.01951    -0.41029,    0.05787     0.06877,    0.02777
   8       0.01109,   -0.02002     0.03606,    0.00990    -0.01468,   -0.02714     0.00750,    0.03767     0.16468,   -0.37244    -0.15649,    0.45763
   9       0.01160,   -0.02190     0.01148,    0.02754     0.01321,   -0.01570    -0.02470,   -0.01719     0.15053,    0.36090    -0.16710,   -0.42535
  10       0.00190,    0.02190    -0.02488,    0.06865     0.01033,    0.02152    -0.00317,    0.04233    -0.03585,    0.19890     0.13764,   -0.24330

                     7                       8                       9                      10  
       ----------------------- ----------------------- ----------------------- -----------------------
   1      -0.02866,   -0.01771    -0.00593,    0.01016    -0.02602,   -0.00581     0.00684,    0.00453
   2       0.00931,   -0.02482     0.01156,    0.02747     0.02751,   -0.04070    -0.02807,   -0.04757
   3       0.03138,    0.02023     0.02845,    0.01338     0.00343,    0.00490     0.04504,   -0.00381
   4       0.00615,   -0.03558    -0.03575,   -0.00745    -0.01442,    0.03380     0.02446,   -0.00330
   5      -0.42333,   -0.33183    -0.37966,   -0.34135    -0.06096,   -0.01186    -0.03170,   -0.01297
   6       0.23846,    0.25031     0.36561,    0.33032     0.24924,    0.28242    -0.04813,    0.01875
   7       0.39999,   -0.05499     0.02777,    0.01812    -0.80004,    0.10771     0.00492,    0.00557
   8      -0.17786,    0.37697     0.18883,   -0.43619    -0.17325,    0.40529    -0.04364,   -0.00820
   9       0.19947,    0.40195    -0.15876,   -0.42439    -0.03141,   -0.02305    -0.14849,   -0.45297
  10      -0.11091,    0.19031     0.11940,   -0.21592    -0.03272,   -0.03505    -0.43964,    0.75355

                   WFN1 Final beta Correlation Function Analysis
                   ---------------------------------------------


 global array: Cb[1:10,1:10],  handle: -980 

                     1                       2                       3                       4                       5                       6  
       ----------------------- ----------------------- ----------------------- ----------------------- ----------------------- -----------------------
   1      -0.55759,   -0.78344     0.13876,    0.22268     0.05375,   -0.00105     0.00613,    0.02678    -0.01701,    0.00189     0.01902,   -0.01140
   2       0.18492,    0.18612     0.63976,    0.71313     0.01395,   -0.01002     0.00766,    0.00244    -0.00882,   -0.05969     0.04744,   -0.00343
   3      -0.04156,   -0.00019     0.02383,    0.00992    -0.63090,    0.39295    -0.55692,    0.35396    -0.01493,   -0.04303    -0.01369,   -0.05463
   4       0.02484,    0.02635    -0.00997,   -0.01463     0.48750,   -0.44469    -0.54962,    0.50119    -0.06960,    0.00523     0.01520,   -0.00059
   5      -0.00123,    0.02608    -0.03614,    0.02635    -0.04068,   -0.00699     0.02315,   -0.03519    -0.39537,   -0.32149    -0.30381,   -0.29471
   6       0.00416,   -0.02340    -0.02429,    0.00970     0.03986,   -0.04225     0.03595,   -0.02771    -0.30439,   -0.32484    -0.36939,   -0.38966
   7       0.00374,    0.02380    -0.02330,    0.03854    -0.04181,   -0.01403     0.04535,   -0.01951    -0.41029,    0.05787     0.06877,    0.02777
   8       0.01109,   -0.02002     0.03606,    0.00990    -0.01468,   -0.02714     0.00750,    0.03767     0.16468,   -0.37244    -0.15649,    0.45763
   9       0.01160,   -0.02190     0.01148,    0.02754     0.01321,   -0.01570    -0.02470,   -0.01719     0.15053,    0.36090    -0.16710,   -0.42535
  10       0.00190,    0.02190    -0.02488,    0.06865     0.01033,    0.02152    -0.00317,    0.04233    -0.03585,    0.19890     0.13764,   -0.24330

                     7                       8                       9                      10  
       ----------------------- ----------------------- ----------------------- -----------------------
   1      -0.02866,   -0.01771    -0.00593,    0.01016    -0.02602,   -0.00581     0.00684,    0.00453
   2       0.00931,   -0.02482     0.01156,    0.02747     0.02751,   -0.04070    -0.02807,   -0.04757
   3       0.03138,    0.02023     0.02845,    0.01338     0.00343,    0.00490     0.04504,   -0.00381
   4       0.00615,   -0.03558    -0.03575,   -0.00745    -0.01442,    0.03380     0.02446,   -0.00330
   5      -0.42333,   -0.33183    -0.37966,   -0.34135    -0.06096,   -0.01186    -0.03170,   -0.01297
   6       0.23846,    0.25031     0.36561,    0.33032     0.24924,    0.28242    -0.04813,    0.01875
   7       0.39999,   -0.05499     0.02777,    0.01812    -0.80004,    0.10771     0.00492,    0.00557
   8      -0.17786,    0.37697     0.18883,   -0.43619    -0.17325,    0.40529    -0.04364,   -0.00820
   9       0.19947,    0.40195    -0.15876,   -0.42439    -0.03141,   -0.02305    -0.14849,   -0.45297
  10      -0.11091,    0.19031     0.11940,   -0.21592    -0.03272,   -0.03505    -0.43964,    0.75355

                     WFN1 Final Alpha Natural Orbital Analysis
                     -----------------------------------------

 Vector    1  Occ=9.246772D-01  E= 0.000000D+00
              MO Center=  3.1D-05, -2.3D-05,  2.3D-04, r^2= 1.7D+00
   Bfn.  Coefficient  Atom+Function         Bfn.  Coefficient  Atom+Function  
  ----- ------------  ---------------      ----- ------------  ---------------
     2     -0.458429  1 H  s                  7     -0.458755  2 H  s          
     1     -0.227088  1 H  s                  6     -0.226968  2 H  s          

 Vector    2  Occ=6.883620D-02  E= 0.000000D+00
              MO Center= -1.7D-04, -1.9D-04, -1.0D-04, r^2= 2.0D+00
   Bfn.  Coefficient  Atom+Function         Bfn.  Coefficient  Atom+Function  
  ----- ------------  ---------------      ----- ------------  ---------------
     2      0.587889  1 H  s                  7     -0.587908  2 H  s          
     1      0.298039  1 H  s                  6     -0.297857  2 H  s          

 Vector    3  Occ=1.727135D-03  E= 0.000000D+00
              MO Center=  1.2D-03,  4.0D-03,  2.8D-04, r^2= 2.4D+00
   Bfn.  Coefficient  Atom+Function         Bfn.  Coefficient  Atom+Function  
  ----- ------------  ---------------      ----- ------------  ---------------
     2      0.984270  1 H  s                  7     -0.985988  2 H  s          
     1     -0.883091  1 H  s                  6      0.886571  2 H  s          
     5     -0.130137  1 H  pz                10     -0.118646  2 H  pz         

 Vector    4  Occ=1.311331D-03  E= 0.000000D+00
              MO Center=  2.9D-03,  4.0D-03, -5.9D-03, r^2= 1.7D+00
   Bfn.  Coefficient  Atom+Function         Bfn.  Coefficient  Atom+Function  
  ----- ------------  ---------------      ----- ------------  ---------------
     1      0.880301  1 H  s                  6      0.865066  2 H  s          
     2     -0.668866  1 H  s                  7     -0.645344  2 H  s          
    10     -0.271750  2 H  pz                 5      0.218007  1 H  pz         
     3      0.033125  1 H  px                 4      0.030654  1 H  py         

 Vector    5  Occ=6.814928D-04  E= 0.000000D+00
              MO Center=  3.6D-03,  2.6D-04,  3.9D-03, r^2= 1.4D+00
   Bfn.  Coefficient  Atom+Function         Bfn.  Coefficient  Atom+Function  
  ----- ------------  ---------------      ----- ------------  ---------------
    10     -0.661636  2 H  pz                 5      0.656343  1 H  pz         
     1     -0.277105  1 H  s                  6     -0.267825  2 H  s          
     2      0.163667  1 H  s                  7      0.154007  2 H  s          
     4     -0.068947  1 H  py                 9      0.065977  2 H  py         
     3     -0.029473  1 H  px                 8     -0.029403  2 H  px         

 Vector    6  Occ=5.649041D-04  E= 0.000000D+00
              MO Center=  5.5D-04, -1.3D-03,  2.1D-03, r^2= 1.2D+00
   Bfn.  Coefficient  Atom+Function         Bfn.  Coefficient  Atom+Function  
  ----- ------------  ---------------      ----- ------------  ---------------
     4     -0.652943  1 H  py                 9     -0.639890  2 H  py         
     8      0.301950  2 H  px                 3      0.267403  1 H  px         

 Vector    7  Occ=5.803143D-04  E= 0.000000D+00
              MO Center= -7.2D-03, -3.1D-03,  7.8D-05, r^2= 1.2D+00
   Bfn.  Coefficient  Atom+Function         Bfn.  Coefficient  Atom+Function  
  ----- ------------  ---------------      ----- ------------  ---------------
     8     -0.659050  2 H  px                 3     -0.630093  1 H  px         
     4     -0.314886  1 H  py                 9     -0.254186  2 H  py         
     5     -0.050016  1 H  pz                 6      0.036934  2 H  s          
     1      0.031492  1 H  s          

 Vector    8  Occ=5.240203D-04  E= 0.000000D+00
              MO Center= -2.3D-03, -7.6D-04, -1.4D-04, r^2= 1.2D+00
   Bfn.  Coefficient  Atom+Function         Bfn.  Coefficient  Atom+Function  
  ----- ------------  ---------------      ----- ------------  ---------------
     3     -0.652853  1 H  px                 8      0.639365  2 H  px         
     9      0.301853  2 H  py                 4     -0.267506  1 H  py         
     1      0.060902  1 H  s                  2     -0.052703  1 H  s          

 Vector    9  Occ=6.140236D-04  E= 0.000000D+00
              MO Center=  1.8D-03, -3.0D-03, -2.3D-03, r^2= 1.2D+00
   Bfn.  Coefficient  Atom+Function         Bfn.  Coefficient  Atom+Function  
  ----- ------------  ---------------      ----- ------------  ---------------
     9     -0.655600  2 H  py                 4      0.629821  1 H  py         
     3     -0.319370  1 H  px                 8      0.253113  2 H  px         
    10     -0.070632  2 H  pz                 1     -0.047871  1 H  s          
     5      0.039353  1 H  pz                 2      0.038046  1 H  s          

 Vector   10  Occ=4.834000D-04  E= 0.000000D+00
              MO Center= -4.0D-04,  1.5D-04,  1.9D-03, r^2= 1.4D+00
   Bfn.  Coefficient  Atom+Function         Bfn.  Coefficient  Atom+Function  
  ----- ------------  ---------------      ----- ------------  ---------------
     5     -0.716262  1 H  pz                10     -0.694504  2 H  pz         
     7      0.368883  2 H  s                  2     -0.318685  1 H  s          
     6     -0.266466  2 H  s                  1      0.200007  1 H  s          
     3      0.035777  1 H  px         


                     WFN1 Final Beta Natural Orbital Analysis
                     ----------------------------------------

 Vector    1  Occ=9.246772D-01  E= 0.000000D+00
              MO Center=  3.1D-05, -2.3D-05,  2.3D-04, r^2= 1.7D+00
   Bfn.  Coefficient  Atom+Function         Bfn.  Coefficient  Atom+Function  
  ----- ------------  ---------------      ----- ------------  ---------------
     2     -0.458429  1 H  s                  7     -0.458755  2 H  s          
     1     -0.227088  1 H  s                  6     -0.226968  2 H  s          

 Vector    2  Occ=6.883620D-02  E= 0.000000D+00
              MO Center= -1.7D-04, -1.9D-04, -1.0D-04, r^2= 2.0D+00
   Bfn.  Coefficient  Atom+Function         Bfn.  Coefficient  Atom+Function  
  ----- ------------  ---------------      ----- ------------  ---------------
     2      0.587889  1 H  s                  7     -0.587908  2 H  s          
     1      0.298039  1 H  s                  6     -0.297857  2 H  s          

 Vector    3  Occ=1.727135D-03  E= 0.000000D+00
              MO Center=  1.2D-03,  4.0D-03,  2.8D-04, r^2= 2.4D+00
   Bfn.  Coefficient  Atom+Function         Bfn.  Coefficient  Atom+Function  
  ----- ------------  ---------------      ----- ------------  ---------------
     2      0.984270  1 H  s                  7     -0.985988  2 H  s          
     1     -0.883091  1 H  s                  6      0.886571  2 H  s          
     5     -0.130137  1 H  pz                10     -0.118646  2 H  pz         

 Vector    4  Occ=1.311331D-03  E= 0.000000D+00
              MO Center=  2.9D-03,  4.0D-03, -5.9D-03, r^2= 1.7D+00
   Bfn.  Coefficient  Atom+Function         Bfn.  Coefficient  Atom+Function  
  ----- ------------  ---------------      ----- ------------  ---------------
     1      0.880301  1 H  s                  6      0.865066  2 H  s          
     2     -0.668866  1 H  s                  7     -0.645344  2 H  s          
    10     -0.271750  2 H  pz                 5      0.218007  1 H  pz         
     3      0.033125  1 H  px                 4      0.030654  1 H  py         

 Vector    5  Occ=6.814928D-04  E= 0.000000D+00
              MO Center=  3.6D-03,  2.6D-04,  3.9D-03, r^2= 1.4D+00
   Bfn.  Coefficient  Atom+Function         Bfn.  Coefficient  Atom+Function  
  ----- ------------  ---------------      ----- ------------  ---------------
    10     -0.661636  2 H  pz                 5      0.656343  1 H  pz         
     1     -0.277105  1 H  s                  6     -0.267825  2 H  s          
     2      0.163667  1 H  s                  7      0.154007  2 H  s          
     4     -0.068947  1 H  py                 9      0.065977  2 H  py         
     3     -0.029473  1 H  px                 8     -0.029403  2 H  px         

 Vector    6  Occ=5.649041D-04  E= 0.000000D+00
              MO Center=  5.5D-04, -1.3D-03,  2.1D-03, r^2= 1.2D+00
   Bfn.  Coefficient  Atom+Function         Bfn.  Coefficient  Atom+Function  
  ----- ------------  ---------------      ----- ------------  ---------------
     4     -0.652943  1 H  py                 9     -0.639890  2 H  py         
     8      0.301950  2 H  px                 3      0.267403  1 H  px         

 Vector    7  Occ=5.803143D-04  E= 0.000000D+00
              MO Center= -7.2D-03, -3.1D-03,  7.8D-05, r^2= 1.2D+00
   Bfn.  Coefficient  Atom+Function         Bfn.  Coefficient  Atom+Function  
  ----- ------------  ---------------      ----- ------------  ---------------
     8     -0.659050  2 H  px                 3     -0.630093  1 H  px         
     4     -0.314886  1 H  py                 9     -0.254186  2 H  py         
     5     -0.050016  1 H  pz                 6      0.036934  2 H  s          
     1      0.031492  1 H  s          

 Vector    8  Occ=5.240203D-04  E= 0.000000D+00
              MO Center= -2.3D-03, -7.6D-04, -1.4D-04, r^2= 1.2D+00
   Bfn.  Coefficient  Atom+Function         Bfn.  Coefficient  Atom+Function  
  ----- ------------  ---------------      ----- ------------  ---------------
     3     -0.652853  1 H  px                 8      0.639365  2 H  px         
     9      0.301853  2 H  py                 4     -0.267506  1 H  py         
     1      0.060902  1 H  s                  2     -0.052703  1 H  s          

 Vector    9  Occ=6.140236D-04  E= 0.000000D+00
              MO Center=  1.8D-03, -3.0D-03, -2.3D-03, r^2= 1.2D+00
   Bfn.  Coefficient  Atom+Function         Bfn.  Coefficient  Atom+Function  
  ----- ------------  ---------------      ----- ------------  ---------------
     9     -0.655600  2 H  py                 4      0.629821  1 H  py         
     3     -0.319370  1 H  px                 8      0.253113  2 H  px         
    10     -0.070632  2 H  pz                 1     -0.047871  1 H  s          
     5      0.039353  1 H  pz                 2      0.038046  1 H  s          

 Vector   10  Occ=4.834000D-04  E= 0.000000D+00
              MO Center= -4.0D-04,  1.5D-04,  1.9D-03, r^2= 1.4D+00
   Bfn.  Coefficient  Atom+Function         Bfn.  Coefficient  Atom+Function  
  ----- ------------  ---------------      ----- ------------  ---------------
     5     -0.716262  1 H  pz                10     -0.694504  2 H  pz         
     7      0.368883  2 H  s                  2     -0.318685  1 H  s          
     6     -0.266466  2 H  s                  1      0.200007  1 H  s          
     3      0.035777  1 H  px         


 Task  times  cpu:     3628.3s     wall:     4582.8s
 Summary of allocated global arrays
-----------------------------------
  No active global arrays



                         GA Statistics for process    0
                         ------------------------------

       create   destroy   get      put      acc     scatter   gather  read&inc
calls:   44       44     1.00e+09 4.30e+05 5.72e+05    0        0       11     
number of processes/call 1.00e+00 1.00e+00 1.00e+00 0.00e+00 0.00e+00
bytes total:             8.02e+11 4.57e+08 5.72e+08 0.00e+00 0.00e+00 8.80e+01
bytes remote:            0.00e+00 0.00e+00 0.00e+00 0.00e+00 0.00e+00 0.00e+00
Max memory consumed for GA by this process: 268000 bytes
MA_summarize_allocated_blocks: starting scan ...
MA_summarize_allocated_blocks: scan completed: 0 heap blocks, 0 stack blocks
MA usage statistics:

	allocation statistics:
					      heap	     stack
					      ----	     -----
	current number of blocks	         0	         0
	maximum number of blocks	        19	        17
	current total bytes		         0	         0
	maximum total bytes		   3205416	  22508616
	maximum total K-bytes		      3206	     22509
	maximum total M-bytes		         4	        23


                                NWChem Input Module
                                -------------------





                                     CITATION
                                     --------
                Please cite the following reference when publishing
                           results obtained with NWChem:

                 M. Valiev, E.J. Bylaska, N. Govind, K. Kowalski,
              T.P. Straatsma, H.J.J. van Dam, D. Wang, J. Nieplocha,
                        E. Apra, T.L. Windus, W.A. de Jong
                 "NWChem: a comprehensive and scalable open-source
                  solution for large scale molecular simulations"
                      Comput. Phys. Commun. 181, 1477 (2010)
                           doi:10.1016/j.cpc.2010.04.018

                                      AUTHORS
                                      -------
          E. Apra, E. J. Bylaska, W. A. de Jong, N. Govind, K. Kowalski,
       T. P. Straatsma, M. Valiev, H. J. J. van Dam, D. Wang, T. L. Windus,
        J. Hammond, J. Autschbach, K. Bhaskaran-Nair, J. Brabec, K. Lopata,
    S. A. Fischer, S. Krishnamoorthy, M. Jacquelin, W. Ma, M. Klemm, O. Villa,
      Y. Chen, V. Anisimov, F. Aquino, S. Hirata, M. T. Hackler, V. Konjkov,
      T. Risthaus, M. Malagoli, A. Marenich, A. Otero-de-la-Roza, J. Mullin,
        P. Nichols, R. Peverati, J. Pittner, Y. Zhao, P.-D. Fan, A. Fonari,
       M. Williamson, R. J. Harrison, J. R. Rehr, M. Dupuis, D. Silverstein,
    D. M. A. Smith, J. Nieplocha, V. Tipparaju, M. Krishnan, B. E. Van Kuiken,
        A. Vazquez-Mayagoitia, L. Jensen, M. Swart, Q. Wu, T. Van Voorhis,
     A. A. Auer, M. Nooijen, L. D. Crosby, E. Brown, G. Cisneros, G. I. Fann,
   H. Fruchtl, J. Garza, K. Hirao, R. A. Kendall, J. A. Nichols, K. Tsemekhman,
    K. Wolinski, J. Anchell, D. E. Bernholdt, P. Borowski, T. Clark, D. Clerc,
   H. Dachsel, M. J. O. Deegan, K. Dyall, D. Elwood, E. Glendening, M. Gutowski,
   A. C. Hess, J. Jaffe, B. G. Johnson, J. Ju, R. Kobayashi, R. Kutteh, Z. Lin,
   R. Littlefield, X. Long, B. Meng, T. Nakajima, S. Niu, L. Pollack, M. Rosing,
   K. Glaesemann, G. Sandrone, M. Stave, H. Taylor, G. Thomas, J. H. van Lenthe,
                               A. T. Wong, Z. Zhang.

 Total times  cpu:     3628.3s     wall:     4582.8s
