 argument  1 = input-wf.nw



============================== echo of input deck ==============================
echo
start wfn1_dat
geometry units au noautoz
  H 0 0 -2.04434600000000000000
  H 0 0  2.04434600000000000000
  symmetry cs
end
basis
  H library 6-31g**
end
set wfn1:input_vectors "atomic"
set wfn1:solver "monte-carlo"
set wfn1:print_error F
set wfn1:t_initial 0.1
#set wfn1:corr_expr "wfn1_mx"
set wfn1:corr_expr "wfn1c"
set wfn1:t_bath 0.0
set wfn1:maxit  20000
task wfn1 energy
================================================================================


                                         
                                         


              Northwest Computational Chemistry Package (NWChem) 6.8
              ------------------------------------------------------


                    Environmental Molecular Sciences Laboratory
                       Pacific Northwest National Laboratory
                                Richland, WA 99352

                              Copyright (c) 1994-2015
                       Pacific Northwest National Laboratory
                            Battelle Memorial Institute

             NWChem is an open-source computational chemistry package
                        distributed under the terms of the
                      Educational Community License (ECL) 2.0
             A copy of the license is included with this distribution
                              in the LICENSE.TXT file

                                  ACKNOWLEDGMENT
                                  --------------

            This software and its documentation were developed at the
            EMSL at Pacific Northwest National Laboratory, a multiprogram
            national laboratory, operated for the U.S. Department of Energy
            by Battelle under Contract Number DE-AC05-76RL01830. Support
            for this work was provided by the Department of Energy Office
            of Biological and Environmental Research, Office of Basic
            Energy Sciences, and the Office of Advanced Scientific Computing.


           Job information
           ---------------

    hostname        = erato
    program         = ../../../bin/LINUX64/nwchem
    date            = Mon Mar  1 22:35:02 2021

    compiled        = Sun_Feb_28_18:02:42_2021
    source          = /home/hvandam/nwchem-1-wfn1
    nwchem branch   = Development
    nwchem revision = nwchem_on_git-124-gad72d19fff205e319ffbbf2bca37a04ded6ad57b
    ga revision     = nwchem_on_git-124-gad72d19
    use scalapack   = F
    input           = input-wf.nw
    prefix          = wfn1_dat.
    data base       = ./wfn1_dat.db
    status          = startup
    nproc           =        1
    time left       =     -1s



           Memory information
           ------------------

    heap     =   13107200 doubles =    100.0 Mbytes
    stack    =   13107197 doubles =    100.0 Mbytes
    global   =   26214400 doubles =    200.0 Mbytes (distinct from heap & stack)
    total    =   52428797 doubles =    400.0 Mbytes
    verify   = yes
    hardfail = no 


           Directory information
           ---------------------

  0 permanent = .
  0 scratch   = .




                                NWChem Input Module
                                -------------------


 Turning off AUTOSYM since
 SYMMETRY directive was detected!



                             Geometry "geometry" -> ""
                             -------------------------

 Output coordinates in a.u. (scale by  1.000000000 to convert to a.u.)

  No.       Tag          Charge          X              Y              Z
 ---- ---------------- ---------- -------------- -------------- --------------
    1 H                    1.0000     0.00000000     0.00000000    -2.04434600
    2 H                    1.0000     0.00000000     0.00000000     2.04434600

      Atomic Mass 
      ----------- 

      H                  1.007825


 Effective nuclear repulsion energy (a.u.)       0.2445769943

            Nuclear Dipole moment (a.u.) 
            ----------------------------
        X                 Y               Z
 ---------------- ---------------- ----------------
     0.0000000000     0.0000000000     0.0000000000

      Symmetry information
      --------------------

 Group name             Cs        
 Group number              2
 Group order               2
 No. of unique centers     1

      Symmetry unique atoms

     1


            XYZ format geometry
            -------------------
     2
 geometry
 H                     0.00000000     0.00000000    -1.08182139
 H                     0.00000000     0.00000000     1.08182139

                      Basis "ao basis" -> "" (cartesian)
                      -----
  H (Hydrogen)
  ------------
            Exponent  Coefficients 
       -------------- ---------------------------------------------------------
  1 S  1.87311370E+01  0.033495
  1 S  2.82539370E+00  0.234727
  1 S  6.40121700E-01  0.813757

  2 S  1.61277800E-01  1.000000

  3 P  1.10000000E+00  1.000000



 Summary of "ao basis" -> "" (cartesian)
 ------------------------------------------------------------------------------
       Tag                 Description            Shells   Functions and Types
 ---------------- ------------------------------  ------  ---------------------
 H                          6-31g**                  3        5   2s1p



                                NWChem WFN1 Module
                                ------------------



          No. of electrons :     2
           Alpha electrons :     1
            Beta electrons :     1
          Charge           :     0
          Spin multiplicity:     1

 HvD: wfn1_inpdft
 HvD: nquad_task =                     1
 HvD: iangquad   =                     0
 HvD: gridtype   = user      
 HvD: leb        =  T
 HvD: radgrid    = murakn    
 HvD: trunc_neigh=  T
 HvD: lssw       =  T
 HvD: whichssw   = erf1    
 HvD: mxnrad     =                     0
 HvD: mxnang     =                     0
 HVD: wfn1: movecs_in  = atomic                                                                                                                                                                                                                                                          
 HVD: wfn1: movecs_out = ./wfn1_dat.movecs                                                                                                                                                                                                                                               

      Superposition of Atomic Density Guess
      -------------------------------------

 Sum of atomic energies:          -0.99646508

      Non-variational initial energy
      ------------------------------

 Total energy =      -0.689259
 1-e energy   =      -1.485398
 2-e energy   =       0.551562
 HOMO         =      -0.252365
 LUMO         =      -0.123715

 iteration              energy           error
 ---------              ------           -----
         0         -0.88455123        0.200000
         1         -0.88908499        0.200000
         2         -0.88968759        0.200000
         3         -0.88992458        0.200000
         4         -0.89249456        0.200000
         5         -0.89314963        0.200000
         6         -0.89496249        0.200000
         7         -0.89566606        0.200000
         8         -0.89599331        0.200000
         9         -0.89668101        0.200000
        10         -0.89751489        0.200000
        11         -0.89870405        0.200000
        12         -0.89875472        0.200000
        13         -0.89932014        0.200000
        14         -0.89964392        0.200000
        15         -0.89965816        0.200000
        16         -0.90011268        0.200000
        17         -0.90044758        0.200000
        18         -0.90106174        0.200000
        19         -0.90125172        0.200000
        20         -0.90135826        0.185175
        21         -0.90238693        0.185175
        22         -0.90246113        0.146973
        23         -0.90266599        0.146973
        24         -0.90307510        0.146973
        25         -0.90311076        0.146973
        26         -0.90323892        0.146973
        27         -0.90383402        0.136079
        28         -0.90413495        0.136079
        29         -0.90419792        0.136079
        30         -0.90429912        0.136079
        31         -0.90446640        0.136079
        32         -0.90447118        0.125992
        33         -0.90448128        0.125992
        34         -0.90456380        0.125992
        35         -0.90490676        0.125992
        36         -0.90495048        0.125992
        37         -0.90500719        0.125992
        38         -0.90517444        0.125992
        39         -0.90525571        0.125992
        40         -0.90529115        0.125992
        41         -0.90529422        0.125992
        42         -0.90561627        0.125992
        43         -0.90562240        0.125992
        44         -0.90576783        0.092587
        45         -0.90591337        0.085724
        46         -0.90593906        0.085724
        47         -0.90600868        0.085724
        48         -0.90623560        0.085724
        49         -0.90628100        0.085724
        50         -0.90631451        0.085724
        51         -0.90633060        0.085724
        52         -0.90633800        0.085724
        53         -0.90646356        0.085724
        54         -0.90655549        0.085724
        55         -0.90693777        0.085724
        56         -0.90695354        0.073487
        57         -0.90697593        0.073487
        58         -0.90699201        0.073487
        59         -0.90704295        0.073487
        60         -0.90714532        0.073487
        61         -0.90714936        0.073487
        62         -0.90715335        0.068040
        63         -0.90721806        0.068040
        64         -0.90732739        0.068040
        65         -0.90742690        0.068040
        66         -0.90745357        0.068040
        67         -0.90753427        0.068040
        68         -0.90759414        0.068040
        69         -0.90761272        0.062996
        70         -0.90763229        0.058326
        71         -0.90766498        0.039685
        72         -0.90769917        0.036743
        73         -0.90772643        0.025000
        74         -0.90776684        0.023147
        75         -0.90776917        0.017010
        76         -0.90785739        0.010716
        77         -0.90786079        0.009921
        78         -0.90788834        0.005787
        79         -0.90789055        0.004593
        80         -0.90789096        0.000781
        81         -0.90790644        0.000620
        82         -0.90790733        0.000574
        83         -0.90790785        0.000246
        84         -0.90791800        0.000228
        85         -0.90791964        0.000195
        86         -0.90791978        0.000195
        87         -0.90792043        0.000031
        88         -0.90792215        0.000026
        89         -0.90792262        0.000023
        90         -0.90792301        0.000019
        91         -0.90792393        0.000013
        92         -0.90792406        0.000007
        93         -0.90792442        0.000005
        94         -0.90792442        0.000003
        95         -0.90792468        0.000002
        96         -0.90792472        0.000002
        97         -0.90792484        0.000002
        98         -0.90792531        0.000002
        99         -0.90792541        0.000002
       100         -0.90792542        0.000002
       101         -0.90792547        0.000002
       102         -0.90792588        0.000002
       103         -0.90792590        0.000001
       104         -0.90792607        0.000000

 Reached Convergence

 WFN1                     :
 --------------------------
 Total WFN1 energy  =          -0.9079260727
 1-Electron energy  =          -1.5038372549
 2-Electron energy  =           0.4132562210
 Correlation energy =          -0.0619220332
 DFT XC energy      =           0.0000000000
 Entropy energy     =           0.0000000000
 Nuclear energy     =           0.2445769943

 conventional Hartree-Fock:
 --------------------------
 Total SCF energy  =          -0.8440702470
 2-Electron energy =           0.4771120467

                WFN1 Final Natural orbital energies and occupations
                ---------------------------------------------------

              Alpha       Beta            Alpha       Beta  
            --------    --------        --------    --------
       1      0.0000      0.0000          0.8476      0.8476
       2      0.0000      0.0000          0.1440      0.1440
       3      0.0000      0.0000          0.0038      0.0038
       4      0.0000      0.0000          0.0023      0.0023
       5      0.0000      0.0000          0.0008      0.0008
       6      0.0000      0.0000          0.0004      0.0004
       7      0.0000      0.0000          0.0002      0.0002
       8      0.0000      0.0000          0.0000      0.0000
       9      0.0000      0.0000          0.0003      0.0003
      10      0.0000      0.0000          0.0007      0.0007

             WFN1 Final Correlation function energies and occupations
             --------------------------------------------------------

              Alpha       Beta            Alpha       Beta  
            --------    --------        --------    --------
       1      0.0000      0.0000          1.0000      1.0000
       2      0.0000      0.0000          0.0000      0.0000
       3      0.0000      0.0000          0.0000      0.0000
       4      0.0000      0.0000          0.0000      0.0000
       5      0.0000      0.0000          0.0000      0.0000
       6      0.0000      0.0000          0.0000      0.0000
       7      0.0000      0.0000          0.0000      0.0000
       8      0.0000      0.0000          0.0000      0.0000
       9      0.0000      0.0000          0.0000      0.0000
      10      0.0000      0.0000          0.0000      0.0000

                WFN1 Final alpha-alpha 2-matrix occupation numbers
                --------------------------------------------------


 global array: g_momo1[1:10,1:10],  handle: -990 

            1           2           3           4           5           6  
       ----------- ----------- ----------- ----------- ----------- -----------
   1       0.00000    -0.00000    -0.00000     0.00000     0.00000     0.00000
   2      -0.00000     0.00000     0.00000     0.00000     0.00000     0.00000
   3       0.00000     0.00000     0.00000     0.00000     0.00000     0.00000
   4      -0.00000     0.00000    -0.00000     0.00000    -0.00000     0.00000
   5      -0.00000     0.00000     0.00000     0.00000     0.00000     0.00000
   6       0.00000     0.00000    -0.00000     0.00000    -0.00000     0.00000
   7       0.00000    -0.00000     0.00000     0.00000     0.00000     0.00000
   8       0.00000     0.00000    -0.00000    -0.00000     0.00000     0.00000
   9       0.00000     0.00000     0.00000     0.00000     0.00000     0.00000
  10       0.00000     0.00000    -0.00000     0.00000     0.00000     0.00000

            7           8           9          10  
       ----------- ----------- ----------- -----------
   1       0.00000     0.00000     0.00000     0.00000
   2      -0.00000     0.00000    -0.00000     0.00000
   3      -0.00000     0.00000     0.00000    -0.00000
   4       0.00000     0.00000     0.00000     0.00000
   5       0.00000     0.00000     0.00000     0.00000
   6       0.00000     0.00000     0.00000     0.00000
   7      -0.00000     0.00000    -0.00000     0.00000
   8      -0.00000     0.00000     0.00000     0.00000
   9      -0.00000     0.00000    -0.00000    -0.00000
  10      -0.00000     0.00000    -0.00000     0.00000

                 WFN1 Final beta-beta 2-matrix occupation numbers
                 ------------------------------------------------


 global array: g_momo2[1:10,1:10],  handle: -989 

            1           2           3           4           5           6  
       ----------- ----------- ----------- ----------- ----------- -----------
   1       0.00000    -0.00000    -0.00000     0.00000     0.00000     0.00000
   2      -0.00000     0.00000     0.00000     0.00000     0.00000     0.00000
   3       0.00000     0.00000     0.00000     0.00000     0.00000     0.00000
   4      -0.00000     0.00000    -0.00000     0.00000    -0.00000     0.00000
   5      -0.00000     0.00000     0.00000     0.00000     0.00000     0.00000
   6       0.00000     0.00000    -0.00000     0.00000    -0.00000     0.00000
   7       0.00000    -0.00000     0.00000     0.00000     0.00000     0.00000
   8       0.00000     0.00000    -0.00000    -0.00000     0.00000     0.00000
   9       0.00000     0.00000     0.00000     0.00000     0.00000     0.00000
  10       0.00000     0.00000    -0.00000     0.00000     0.00000     0.00000

            7           8           9          10  
       ----------- ----------- ----------- -----------
   1       0.00000     0.00000     0.00000     0.00000
   2      -0.00000     0.00000    -0.00000     0.00000
   3      -0.00000     0.00000     0.00000    -0.00000
   4       0.00000     0.00000     0.00000     0.00000
   5       0.00000     0.00000     0.00000     0.00000
   6       0.00000     0.00000     0.00000     0.00000
   7      -0.00000     0.00000    -0.00000     0.00000
   8      -0.00000     0.00000     0.00000     0.00000
   9      -0.00000     0.00000    -0.00000    -0.00000
  10      -0.00000     0.00000    -0.00000     0.00000

                  WFN1 Final alpha Correlation Function Analysis
                  ----------------------------------------------


 global array: Ca[1:10,1:10],  handle: -981 

                     1                       2                       3                       4                       5                       6  
       ----------------------- ----------------------- ----------------------- ----------------------- ----------------------- -----------------------
   1      -0.83451,   -0.38888     0.35432,    0.14030    -0.00243,    0.01921     0.05979,   -0.00058    -0.00331,    0.00237     0.02333,   -0.00377
   2      -0.37223,   -0.07359    -0.91049,   -0.11492     0.07629,   -0.00077     0.00860,   -0.04422    -0.00745,    0.04475    -0.01570,   -0.00185
   3      -0.02028,    0.05801    -0.03156,    0.04363    -0.03271,    0.79693    -0.03423,    0.58039    -0.07112,   -0.04613    -0.05627,    0.04849
   4      -0.04530,   -0.01485     0.02079,   -0.05088     0.38982,   -0.43643    -0.52751,    0.60017     0.01076,   -0.01979    -0.03865,   -0.04599
   5       0.02759,   -0.00011    -0.03424,    0.00343    -0.00509,    0.01660     0.03382,    0.03912     0.25432,   -0.36877     0.20008,   -0.32442
   6      -0.02011,    0.00586    -0.00314,    0.00665     0.02969,    0.02170     0.01338,    0.02739     0.27556,   -0.29406     0.26564,   -0.23682
   7      -0.00379,    0.01236     0.00703,    0.02707     0.01246,   -0.05094    -0.05004,   -0.05760    -0.38899,    0.02608    -0.43749,    0.03194
   8       0.00000,   -0.00000    -0.02913,    0.04518    -0.03199,    0.00697     0.02615,    0.00852    -0.39476,    0.01356     0.43962,   -0.11807
   9      -0.01175,    0.01292     0.00241,   -0.02740    -0.05137,   -0.05967    -0.04923,   -0.02450    -0.40752,   -0.23695     0.34994,    0.22653
  10       0.02258,    0.01296     0.02908,    0.01167     0.01204,   -0.05819    -0.04326,    0.05316    -0.24926,    0.18655     0.34949,   -0.15028

                     7                       8                       9                      10  
       ----------------------- ----------------------- ----------------------- -----------------------
   1       0.01131,   -0.00026     0.02853,   -0.01781     0.02131,   -0.01968     0.00344,    0.02243
   2      -0.02597,   -0.01367     0.02186,   -0.01524    -0.00674,    0.04424    -0.00344,   -0.00920
   3       0.00744,    0.02675     0.03181,   -0.00815    -0.00300,    0.04613    -0.01747,   -0.04621
   4       0.02079,   -0.01528    -0.06838,    0.02477     0.01989,   -0.03361     0.03024,   -0.03602
   5       0.23702,   -0.45487     0.33272,   -0.43714     0.15476,   -0.24349    -0.03161,    0.00296
   6       0.02402,   -0.03941    -0.24023,    0.25664    -0.39867,    0.38319    -0.40137,    0.33999
   7       0.55297,   -0.00005     0.26139,   -0.05805    -0.29781,   -0.00310    -0.42025,    0.05736
   8       0.45796,   -0.08656    -0.26561,    0.04776    -0.27365,    0.01442     0.50700,   -0.09928
   9      -0.01392,   -0.02199    -0.15217,   -0.11587     0.45928,    0.27558    -0.43421,   -0.28468
  10      -0.38911,    0.23934     0.53829,   -0.30913    -0.34266,    0.19073    -0.01673,    0.01926

                   WFN1 Final beta Correlation Function Analysis
                   ---------------------------------------------


 global array: Cb[1:10,1:10],  handle: -980 

                     1                       2                       3                       4                       5                       6  
       ----------------------- ----------------------- ----------------------- ----------------------- ----------------------- -----------------------
   1      -0.83451,   -0.38888     0.35432,    0.14030    -0.00243,    0.01921     0.05979,   -0.00058    -0.00331,    0.00237     0.02333,   -0.00377
   2      -0.37223,   -0.07359    -0.91049,   -0.11492     0.07629,   -0.00077     0.00860,   -0.04422    -0.00745,    0.04475    -0.01570,   -0.00185
   3      -0.02028,    0.05801    -0.03156,    0.04363    -0.03271,    0.79693    -0.03423,    0.58039    -0.07112,   -0.04613    -0.05627,    0.04849
   4      -0.04530,   -0.01485     0.02079,   -0.05088     0.38982,   -0.43643    -0.52751,    0.60017     0.01076,   -0.01979    -0.03865,   -0.04599
   5       0.02759,   -0.00011    -0.03424,    0.00343    -0.00509,    0.01660     0.03382,    0.03912     0.25432,   -0.36877     0.20008,   -0.32442
   6      -0.02011,    0.00586    -0.00314,    0.00665     0.02969,    0.02170     0.01338,    0.02739     0.27556,   -0.29406     0.26564,   -0.23682
   7      -0.00379,    0.01236     0.00703,    0.02707     0.01246,   -0.05094    -0.05004,   -0.05760    -0.38899,    0.02608    -0.43749,    0.03194
   8       0.00000,   -0.00000    -0.02913,    0.04518    -0.03199,    0.00697     0.02615,    0.00852    -0.39476,    0.01356     0.43962,   -0.11807
   9      -0.01175,    0.01292     0.00241,   -0.02740    -0.05137,   -0.05967    -0.04923,   -0.02450    -0.40752,   -0.23695     0.34994,    0.22653
  10       0.02258,    0.01296     0.02908,    0.01167     0.01204,   -0.05819    -0.04326,    0.05316    -0.24926,    0.18655     0.34949,   -0.15028

                     7                       8                       9                      10  
       ----------------------- ----------------------- ----------------------- -----------------------
   1       0.01131,   -0.00026     0.02853,   -0.01781     0.02131,   -0.01968     0.00344,    0.02243
   2      -0.02597,   -0.01367     0.02186,   -0.01524    -0.00674,    0.04424    -0.00344,   -0.00920
   3       0.00744,    0.02675     0.03181,   -0.00815    -0.00300,    0.04613    -0.01747,   -0.04621
   4       0.02079,   -0.01528    -0.06838,    0.02477     0.01989,   -0.03361     0.03024,   -0.03602
   5       0.23702,   -0.45487     0.33272,   -0.43714     0.15476,   -0.24349    -0.03161,    0.00296
   6       0.02402,   -0.03941    -0.24023,    0.25664    -0.39867,    0.38319    -0.40137,    0.33999
   7       0.55297,   -0.00005     0.26139,   -0.05805    -0.29781,   -0.00310    -0.42025,    0.05736
   8       0.45796,   -0.08656    -0.26561,    0.04776    -0.27365,    0.01442     0.50700,   -0.09928
   9      -0.01392,   -0.02199    -0.15217,   -0.11587     0.45928,    0.27558    -0.43421,   -0.28468
  10      -0.38911,    0.23934     0.53829,   -0.30913    -0.34266,    0.19073    -0.01673,    0.01926

                     WFN1 Final Alpha Natural Orbital Analysis
                     -----------------------------------------

 Vector    1  Occ=8.476320D-01  E= 0.000000D+00
              MO Center=  1.3D-03,  1.2D-03,  1.3D-02, r^2= 1.9D+00
   Bfn.  Coefficient  Atom+Function         Bfn.  Coefficient  Atom+Function  
  ----- ------------  ---------------      ----- ------------  ---------------
     7     -0.485861  2 H  s                  2     -0.476910  1 H  s          
     1     -0.223080  1 H  s                  6     -0.223787  2 H  s          

 Vector    2  Occ=1.439689D-01  E= 0.000000D+00
              MO Center=  1.9D-03,  1.4D-03, -7.8D-03, r^2= 2.2D+00
   Bfn.  Coefficient  Atom+Function         Bfn.  Coefficient  Atom+Function  
  ----- ------------  ---------------      ----- ------------  ---------------
     2      0.568080  1 H  s                  7     -0.555640  2 H  s          
     6     -0.286853  2 H  s                  1      0.279590  1 H  s          

 Vector    3  Occ=3.776489D-03  E= 0.000000D+00
              MO Center= -7.1D-03,  3.9D-03,  3.3D-03, r^2= 2.1D+00
   Bfn.  Coefficient  Atom+Function         Bfn.  Coefficient  Atom+Function  
  ----- ------------  ---------------      ----- ------------  ---------------
     6      0.905556  2 H  s                  1      0.896099  1 H  s          
     7     -0.681859  2 H  s                  2     -0.665045  1 H  s          
     5     -0.035657  1 H  pz                 8     -0.028007  2 H  px         
     9      0.025586  2 H  py         

 Vector    4  Occ=2.272844D-03  E= 0.000000D+00
              MO Center= -7.2D-04, -2.9D-03, -1.1D-02, r^2= 2.8D+00
   Bfn.  Coefficient  Atom+Function         Bfn.  Coefficient  Atom+Function  
  ----- ------------  ---------------      ----- ------------  ---------------
     2      0.970060  1 H  s                  7     -0.960743  2 H  s          
     1     -0.927070  1 H  s                  6      0.914687  2 H  s          
    10     -0.042671  2 H  pz                 9     -0.041811  2 H  py         

 Vector    5  Occ=7.609452D-04  E= 0.000000D+00
              MO Center=  2.2D-04,  3.5D-04, -1.9D-01, r^2= 1.5D+00
   Bfn.  Coefficient  Atom+Function         Bfn.  Coefficient  Atom+Function  
  ----- ------------  ---------------      ----- ------------  ---------------
     5      0.764421  1 H  pz                10     -0.644367  2 H  pz         
     2     -0.088902  1 H  s                  1      0.067968  1 H  s          
     7     -0.055173  2 H  s                  4     -0.037507  1 H  py         
     6      0.035596  2 H  s          

 Vector    6  Occ=4.388444D-04  E= 0.000000D+00
              MO Center= -9.8D-04, -3.5D-03, -7.1D-02, r^2= 1.5D+00
   Bfn.  Coefficient  Atom+Function         Bfn.  Coefficient  Atom+Function  
  ----- ------------  ---------------      ----- ------------  ---------------
     4      0.701484  1 H  py                 9      0.661792  2 H  py         
     3      0.192981  1 H  px                 8      0.169821  2 H  px         
     5      0.051735  1 H  pz                 1     -0.038616  1 H  s          
     2      0.035223  1 H  s                  7     -0.030806  2 H  s          
     6      0.025231  2 H  s          

 Vector    7  Occ=1.672401D-04  E= 0.000000D+00
              MO Center=  6.5D-03, -1.8D-03,  1.7D-02, r^2= 1.5D+00
   Bfn.  Coefficient  Atom+Function         Bfn.  Coefficient  Atom+Function  
  ----- ------------  ---------------      ----- ------------  ---------------
     8     -0.692896  2 H  px                 3     -0.672469  1 H  px         
     4      0.195793  1 H  py                 9      0.165566  2 H  py         
     1     -0.049109  1 H  s                  2      0.043324  1 H  s          

 Vector    8  Occ=8.696790D-19  E= 0.000000D+00
              MO Center=  5.0D-04,  1.3D-03,  6.5D-02, r^2= 1.5D+00
   Bfn.  Coefficient  Atom+Function         Bfn.  Coefficient  Atom+Function  
  ----- ------------  ---------------      ----- ------------  ---------------
     9      0.699107  2 H  py                 4     -0.647394  1 H  py         
     3     -0.223415  1 H  px                 8      0.202610  2 H  px         
     1     -0.038673  1 H  s                  2      0.038553  1 H  s          

 Vector    9  Occ=3.049866D-04  E= 0.000000D+00
              MO Center= -1.4D-03,  4.5D-04, -1.7D-02, r^2= 1.5D+00
   Bfn.  Coefficient  Atom+Function         Bfn.  Coefficient  Atom+Function  
  ----- ------------  ---------------      ----- ------------  ---------------
     3     -0.677958  1 H  px                 8      0.669959  2 H  px         
     4      0.219545  1 H  py                 9     -0.206932  2 H  py         

 Vector   10  Occ=6.776803D-04  E= 0.000000D+00
              MO Center= -3.3D-04, -3.4D-04,  2.0D-01, r^2= 1.5D+00
   Bfn.  Coefficient  Atom+Function         Bfn.  Coefficient  Atom+Function  
  ----- ------------  ---------------      ----- ------------  ---------------
    10      0.766893  2 H  pz                 5      0.645983  1 H  pz         
     7     -0.151637  2 H  s                  2      0.118788  1 H  s          
     6      0.112822  2 H  s                  1     -0.060799  1 H  s          
     4     -0.028143  1 H  py         


                     WFN1 Final Beta Natural Orbital Analysis
                     ----------------------------------------

 Vector    1  Occ=8.476320D-01  E= 0.000000D+00
              MO Center=  1.3D-03,  1.2D-03,  1.3D-02, r^2= 1.9D+00
   Bfn.  Coefficient  Atom+Function         Bfn.  Coefficient  Atom+Function  
  ----- ------------  ---------------      ----- ------------  ---------------
     7     -0.485861  2 H  s                  2     -0.476910  1 H  s          
     1     -0.223080  1 H  s                  6     -0.223787  2 H  s          

 Vector    2  Occ=1.439689D-01  E= 0.000000D+00
              MO Center=  1.9D-03,  1.4D-03, -7.8D-03, r^2= 2.2D+00
   Bfn.  Coefficient  Atom+Function         Bfn.  Coefficient  Atom+Function  
  ----- ------------  ---------------      ----- ------------  ---------------
     2      0.568080  1 H  s                  7     -0.555640  2 H  s          
     6     -0.286853  2 H  s                  1      0.279590  1 H  s          

 Vector    3  Occ=3.776489D-03  E= 0.000000D+00
              MO Center= -7.1D-03,  3.9D-03,  3.3D-03, r^2= 2.1D+00
   Bfn.  Coefficient  Atom+Function         Bfn.  Coefficient  Atom+Function  
  ----- ------------  ---------------      ----- ------------  ---------------
     6      0.905556  2 H  s                  1      0.896099  1 H  s          
     7     -0.681859  2 H  s                  2     -0.665045  1 H  s          
     5     -0.035657  1 H  pz                 8     -0.028007  2 H  px         
     9      0.025586  2 H  py         

 Vector    4  Occ=2.272844D-03  E= 0.000000D+00
              MO Center= -7.2D-04, -2.9D-03, -1.1D-02, r^2= 2.8D+00
   Bfn.  Coefficient  Atom+Function         Bfn.  Coefficient  Atom+Function  
  ----- ------------  ---------------      ----- ------------  ---------------
     2      0.970060  1 H  s                  7     -0.960743  2 H  s          
     1     -0.927070  1 H  s                  6      0.914687  2 H  s          
    10     -0.042671  2 H  pz                 9     -0.041811  2 H  py         

 Vector    5  Occ=7.609452D-04  E= 0.000000D+00
              MO Center=  2.2D-04,  3.5D-04, -1.9D-01, r^2= 1.5D+00
   Bfn.  Coefficient  Atom+Function         Bfn.  Coefficient  Atom+Function  
  ----- ------------  ---------------      ----- ------------  ---------------
     5      0.764421  1 H  pz                10     -0.644367  2 H  pz         
     2     -0.088902  1 H  s                  1      0.067968  1 H  s          
     7     -0.055173  2 H  s                  4     -0.037507  1 H  py         
     6      0.035596  2 H  s          

 Vector    6  Occ=4.388444D-04  E= 0.000000D+00
              MO Center= -9.8D-04, -3.5D-03, -7.1D-02, r^2= 1.5D+00
   Bfn.  Coefficient  Atom+Function         Bfn.  Coefficient  Atom+Function  
  ----- ------------  ---------------      ----- ------------  ---------------
     4      0.701484  1 H  py                 9      0.661792  2 H  py         
     3      0.192981  1 H  px                 8      0.169821  2 H  px         
     5      0.051735  1 H  pz                 1     -0.038616  1 H  s          
     2      0.035223  1 H  s                  7     -0.030806  2 H  s          
     6      0.025231  2 H  s          

 Vector    7  Occ=1.672401D-04  E= 0.000000D+00
              MO Center=  6.5D-03, -1.8D-03,  1.7D-02, r^2= 1.5D+00
   Bfn.  Coefficient  Atom+Function         Bfn.  Coefficient  Atom+Function  
  ----- ------------  ---------------      ----- ------------  ---------------
     8     -0.692896  2 H  px                 3     -0.672469  1 H  px         
     4      0.195793  1 H  py                 9      0.165566  2 H  py         
     1     -0.049109  1 H  s                  2      0.043324  1 H  s          

 Vector    8  Occ=8.696790D-19  E= 0.000000D+00
              MO Center=  5.0D-04,  1.3D-03,  6.5D-02, r^2= 1.5D+00
   Bfn.  Coefficient  Atom+Function         Bfn.  Coefficient  Atom+Function  
  ----- ------------  ---------------      ----- ------------  ---------------
     9      0.699107  2 H  py                 4     -0.647394  1 H  py         
     3     -0.223415  1 H  px                 8      0.202610  2 H  px         
     1     -0.038673  1 H  s                  2      0.038553  1 H  s          

 Vector    9  Occ=3.049866D-04  E= 0.000000D+00
              MO Center= -1.4D-03,  4.5D-04, -1.7D-02, r^2= 1.5D+00
   Bfn.  Coefficient  Atom+Function         Bfn.  Coefficient  Atom+Function  
  ----- ------------  ---------------      ----- ------------  ---------------
     3     -0.677958  1 H  px                 8      0.669959  2 H  px         
     4      0.219545  1 H  py                 9     -0.206932  2 H  py         

 Vector   10  Occ=6.776803D-04  E= 0.000000D+00
              MO Center= -3.3D-04, -3.4D-04,  2.0D-01, r^2= 1.5D+00
   Bfn.  Coefficient  Atom+Function         Bfn.  Coefficient  Atom+Function  
  ----- ------------  ---------------      ----- ------------  ---------------
    10      0.766893  2 H  pz                 5      0.645983  1 H  pz         
     7     -0.151637  2 H  s                  2      0.118788  1 H  s          
     6      0.112822  2 H  s                  1     -0.060799  1 H  s          
     4     -0.028143  1 H  py         


 Task  times  cpu:      166.5s     wall:      194.2s
 Summary of allocated global arrays
-----------------------------------
  No active global arrays



                         GA Statistics for process    0
                         ------------------------------

       create   destroy   get      put      acc     scatter   gather  read&inc
calls:   44       44     6.06e+07 2.75e+04 3.47e+04    0        0       11     
number of processes/call 1.00e+00 1.00e+00 1.00e+00 0.00e+00 0.00e+00
bytes total:             4.85e+10 2.77e+07 3.46e+07 0.00e+00 0.00e+00 8.80e+01
bytes remote:            0.00e+00 0.00e+00 0.00e+00 0.00e+00 0.00e+00 0.00e+00
Max memory consumed for GA by this process: 268000 bytes
MA_summarize_allocated_blocks: starting scan ...
MA_summarize_allocated_blocks: scan completed: 0 heap blocks, 0 stack blocks
MA usage statistics:

	allocation statistics:
					      heap	     stack
					      ----	     -----
	current number of blocks	         0	         0
	maximum number of blocks	        19	        17
	current total bytes		         0	         0
	maximum total bytes		   3205416	  22508616
	maximum total K-bytes		      3206	     22509
	maximum total M-bytes		         4	        23


                                NWChem Input Module
                                -------------------





                                     CITATION
                                     --------
                Please cite the following reference when publishing
                           results obtained with NWChem:

                 M. Valiev, E.J. Bylaska, N. Govind, K. Kowalski,
              T.P. Straatsma, H.J.J. van Dam, D. Wang, J. Nieplocha,
                        E. Apra, T.L. Windus, W.A. de Jong
                 "NWChem: a comprehensive and scalable open-source
                  solution for large scale molecular simulations"
                      Comput. Phys. Commun. 181, 1477 (2010)
                           doi:10.1016/j.cpc.2010.04.018

                                      AUTHORS
                                      -------
          E. Apra, E. J. Bylaska, W. A. de Jong, N. Govind, K. Kowalski,
       T. P. Straatsma, M. Valiev, H. J. J. van Dam, D. Wang, T. L. Windus,
        J. Hammond, J. Autschbach, K. Bhaskaran-Nair, J. Brabec, K. Lopata,
    S. A. Fischer, S. Krishnamoorthy, M. Jacquelin, W. Ma, M. Klemm, O. Villa,
      Y. Chen, V. Anisimov, F. Aquino, S. Hirata, M. T. Hackler, V. Konjkov,
      T. Risthaus, M. Malagoli, A. Marenich, A. Otero-de-la-Roza, J. Mullin,
        P. Nichols, R. Peverati, J. Pittner, Y. Zhao, P.-D. Fan, A. Fonari,
       M. Williamson, R. J. Harrison, J. R. Rehr, M. Dupuis, D. Silverstein,
    D. M. A. Smith, J. Nieplocha, V. Tipparaju, M. Krishnan, B. E. Van Kuiken,
        A. Vazquez-Mayagoitia, L. Jensen, M. Swart, Q. Wu, T. Van Voorhis,
     A. A. Auer, M. Nooijen, L. D. Crosby, E. Brown, G. Cisneros, G. I. Fann,
   H. Fruchtl, J. Garza, K. Hirao, R. A. Kendall, J. A. Nichols, K. Tsemekhman,
    K. Wolinski, J. Anchell, D. E. Bernholdt, P. Borowski, T. Clark, D. Clerc,
   H. Dachsel, M. J. O. Deegan, K. Dyall, D. Elwood, E. Glendening, M. Gutowski,
   A. C. Hess, J. Jaffe, B. G. Johnson, J. Ju, R. Kobayashi, R. Kutteh, Z. Lin,
   R. Littlefield, X. Long, B. Meng, T. Nakajima, S. Niu, L. Pollack, M. Rosing,
   K. Glaesemann, G. Sandrone, M. Stave, H. Taylor, G. Thomas, J. H. van Lenthe,
                               A. T. Wong, Z. Zhang.

 Total times  cpu:      166.5s     wall:      194.3s
