 argument  1 = input-wf.nw



============================== echo of input deck ==============================
echo
start wfn1_dat
geometry units au noautoz
  H 0 0 -1.94434600000000000000
  H 0 0  1.94434600000000000000
  symmetry cs
end
basis
  H library 6-31g**
end
set wfn1:input_vectors "atomic"
set wfn1:solver "monte-carlo"
set wfn1:print_error F
set wfn1:t_initial 0.1
#set wfn1:corr_expr "wfn1_mx"
set wfn1:corr_expr "wfn1c"
set wfn1:t_bath 0.0
set wfn1:maxit  20000
task wfn1 energy
================================================================================


                                         
                                         


              Northwest Computational Chemistry Package (NWChem) 6.8
              ------------------------------------------------------


                    Environmental Molecular Sciences Laboratory
                       Pacific Northwest National Laboratory
                                Richland, WA 99352

                              Copyright (c) 1994-2015
                       Pacific Northwest National Laboratory
                            Battelle Memorial Institute

             NWChem is an open-source computational chemistry package
                        distributed under the terms of the
                      Educational Community License (ECL) 2.0
             A copy of the license is included with this distribution
                              in the LICENSE.TXT file

                                  ACKNOWLEDGMENT
                                  --------------

            This software and its documentation were developed at the
            EMSL at Pacific Northwest National Laboratory, a multiprogram
            national laboratory, operated for the U.S. Department of Energy
            by Battelle under Contract Number DE-AC05-76RL01830. Support
            for this work was provided by the Department of Energy Office
            of Biological and Environmental Research, Office of Basic
            Energy Sciences, and the Office of Advanced Scientific Computing.


           Job information
           ---------------

    hostname        = erato
    program         = ../../../bin/LINUX64/nwchem
    date            = Mon Mar  1 20:36:15 2021

    compiled        = Sun_Feb_28_18:02:42_2021
    source          = /home/hvandam/nwchem-1-wfn1
    nwchem branch   = Development
    nwchem revision = nwchem_on_git-124-gad72d19fff205e319ffbbf2bca37a04ded6ad57b
    ga revision     = nwchem_on_git-124-gad72d19
    use scalapack   = F
    input           = input-wf.nw
    prefix          = wfn1_dat.
    data base       = ./wfn1_dat.db
    status          = startup
    nproc           =        1
    time left       =     -1s



           Memory information
           ------------------

    heap     =   13107198 doubles =    100.0 Mbytes
    stack    =   13107195 doubles =    100.0 Mbytes
    global   =   26214400 doubles =    200.0 Mbytes (distinct from heap & stack)
    total    =   52428793 doubles =    400.0 Mbytes
    verify   = yes
    hardfail = no 


           Directory information
           ---------------------

  0 permanent = .
  0 scratch   = .




                                NWChem Input Module
                                -------------------


 Turning off AUTOSYM since
 SYMMETRY directive was detected!



                             Geometry "geometry" -> ""
                             -------------------------

 Output coordinates in a.u. (scale by  1.000000000 to convert to a.u.)

  No.       Tag          Charge          X              Y              Z
 ---- ---------------- ---------- -------------- -------------- --------------
    1 H                    1.0000     0.00000000     0.00000000    -1.94434600
    2 H                    1.0000     0.00000000     0.00000000     1.94434600

      Atomic Mass 
      ----------- 

      H                  1.007825


 Effective nuclear repulsion energy (a.u.)       0.2571558766

            Nuclear Dipole moment (a.u.) 
            ----------------------------
        X                 Y               Z
 ---------------- ---------------- ----------------
     0.0000000000     0.0000000000     0.0000000000

      Symmetry information
      --------------------

 Group name             Cs        
 Group number              2
 Group order               2
 No. of unique centers     1

      Symmetry unique atoms

     1


            XYZ format geometry
            -------------------
     2
 geometry
 H                     0.00000000     0.00000000    -1.02890367
 H                     0.00000000     0.00000000     1.02890367

                      Basis "ao basis" -> "" (cartesian)
                      -----
  H (Hydrogen)
  ------------
            Exponent  Coefficients 
       -------------- ---------------------------------------------------------
  1 S  1.87311370E+01  0.033495
  1 S  2.82539370E+00  0.234727
  1 S  6.40121700E-01  0.813757

  2 S  1.61277800E-01  1.000000

  3 P  1.10000000E+00  1.000000



 Summary of "ao basis" -> "" (cartesian)
 ------------------------------------------------------------------------------
       Tag                 Description            Shells   Functions and Types
 ---------------- ------------------------------  ------  ---------------------
 H                          6-31g**                  3        5   2s1p



                                NWChem WFN1 Module
                                ------------------



          No. of electrons :     2
           Alpha electrons :     1
            Beta electrons :     1
          Charge           :     0
          Spin multiplicity:     1

 HvD: wfn1_inpdft
 HvD: nquad_task =                     1
 HvD: iangquad   =                     0
 HvD: gridtype   = user      
 HvD: leb        =  T
 HvD: radgrid    = murakn    
 HvD: trunc_neigh=  T
 HvD: lssw       =  T
 HvD: whichssw   = erf1    
 HvD: mxnrad     =                     0
 HvD: mxnang     =                     0
 HVD: wfn1: movecs_in  = atomic                                                                                                                                                                                                                                                          
 HVD: wfn1: movecs_out = ./wfn1_dat.movecs                                                                                                                                                                                                                                               

      Superposition of Atomic Density Guess
      -------------------------------------

 Sum of atomic energies:          -0.99646508

      Non-variational initial energy
      ------------------------------

 Total energy =      -0.691968
 1-e energy   =      -1.510370
 2-e energy   =       0.561246
 HOMO         =      -0.261806
 LUMO         =      -0.112888

 iteration              energy           error
 ---------              ------           -----
         0         -0.89735059        0.200000
         1         -0.90422075        0.200000
         2         -0.90434491        0.200000
         3         -0.90438746        0.200000
         4         -0.90480749        0.200000
         5         -0.90557722        0.200000
         6         -0.90626893        0.200000
         7         -0.90725040        0.200000
         8         -0.90941003        0.200000
         9         -0.90976454        0.200000
        10         -0.91063647        0.200000
        11         -0.91084689        0.200000
        12         -0.91234105        0.200000
        13         -0.91306262        0.200000
        14         -0.91316230        0.200000
        15         -0.91526572        0.200000
        16         -0.91675614        0.200000
        17         -0.91785647        0.200000
        18         -0.91862597        0.200000
        19         -0.91925123        0.200000
        20         -0.91954707        0.200000
        21         -0.91964083        0.200000
        22         -0.91993023        0.185175
        23         -0.92015834        0.158740
        24         -0.92082960        0.158740
        25         -0.92100912        0.146973
        26         -0.92135687        0.146973
        27         -0.92160751        0.136079
        28         -0.92163108        0.136079
        29         -0.92180627        0.136079
        30         -0.92191163        0.100000
        31         -0.92239252        0.100000
        32         -0.92241089        0.100000
        33         -0.92263144        0.100000
        34         -0.92275111        0.100000
        35         -0.92278300        0.100000
        36         -0.92287822        0.100000
        37         -0.92289872        0.100000
        38         -0.92293086        0.100000
        39         -0.92303712        0.100000
        40         -0.92308553        0.100000
        41         -0.92341653        0.100000
        42         -0.92342451        0.092587
        43         -0.92362654        0.092587
        44         -0.92374673        0.085724
        45         -0.92383018        0.079370
        46         -0.92386554        0.079370
        47         -0.92389903        0.079370
        48         -0.92398514        0.079370
        49         -0.92405991        0.079370
        50         -0.92409837        0.062996
        51         -0.92415020        0.050000
        52         -0.92415124        0.050000
        53         -0.92421871        0.046294
        54         -0.92425587        0.042862
        55         -0.92429672        0.042862
        56         -0.92430845        0.042862
        57         -0.92432218        0.042862
        58         -0.92436910        0.042862
        59         -0.92438297        0.039685
        60         -0.92438786        0.039685
        61         -0.92439842        0.039685
        62         -0.92440366        0.039685
        63         -0.92441192        0.036743
        64         -0.92443404        0.036743
        65         -0.92444190        0.036743
        66         -0.92449137        0.036743
        67         -0.92452999        0.036743
        68         -0.92456361        0.036743
        69         -0.92458031        0.036743
        70         -0.92461015        0.036743
        71         -0.92465348        0.036743
        72         -0.92465365        0.036743
        73         -0.92468589        0.036743
        74         -0.92470090        0.036743
        75         -0.92471321        0.036743
        76         -0.92472019        0.036743
        77         -0.92474390        0.036743
        78         -0.92474512        0.036743
        79         -0.92474975        0.036743
        80         -0.92480092        0.036743
        81         -0.92485573        0.036743
        82         -0.92486481        0.036743
        83         -0.92486977        0.036743
        84         -0.92487830        0.036743
        85         -0.92489639        0.036743
        86         -0.92492292        0.036743
        87         -0.92493259        0.036743
        88         -0.92494144        0.036743
        89         -0.92499447        0.036743
        90         -0.92500123        0.036743
        91         -0.92500264        0.036743
        92         -0.92501113        0.036743
        93         -0.92502244        0.034020
        94         -0.92503925        0.034020
        95         -0.92504851        0.034020
        96         -0.92505207        0.029163
        97         -0.92506665        0.029163
        98         -0.92507373        0.029163
        99         -0.92509101        0.029163
       100         -0.92509225        0.025000
       101         -0.92509919        0.025000
       102         -0.92512187        0.025000
       103         -0.92513912        0.025000
       104         -0.92514349        0.025000
       105         -0.92515339        0.023147
       106         -0.92515861        0.023147
       107         -0.92518028        0.023147
       108         -0.92519100        0.023147
       109         -0.92519525        0.021431
       110         -0.92521724        0.021431
       111         -0.92522575        0.019843
       112         -0.92524258        0.019843
       113         -0.92526297        0.018372
       114         -0.92526524        0.018372
       115         -0.92526939        0.018372
       116         -0.92527832        0.018372
       117         -0.92528245        0.018372
       118         -0.92529915        0.018372
       119         -0.92530908        0.018372
       120         -0.92532433        0.018372
       121         -0.92532524        0.018372
       122         -0.92533376        0.018372
       123         -0.92533687        0.018372
       124         -0.92534815        0.018372
       125         -0.92535687        0.018372
       126         -0.92536720        0.017010
       127         -0.92537423        0.017010
       128         -0.92538666        0.017010
       129         -0.92538693        0.017010
       130         -0.92539309        0.017010
       131         -0.92539460        0.017010
       132         -0.92539505        0.017010
       133         -0.92539776        0.017010
       134         -0.92539958        0.017010
       135         -0.92540045        0.017010
       136         -0.92540634        0.017010
       137         -0.92540803        0.017010
       138         -0.92540814        0.017010
       139         -0.92541363        0.017010
       140         -0.92542736        0.017010
       141         -0.92543193        0.017010
       142         -0.92543428        0.017010
       143         -0.92543974        0.017010
       144         -0.92547022        0.017010
       145         -0.92547459        0.017010
       146         -0.92547800        0.017010
       147         -0.92548134        0.017010
       148         -0.92548171        0.017010
       149         -0.92548981        0.017010
       150         -0.92549207        0.017010
       151         -0.92549353        0.017010
       152         -0.92550155        0.017010
       153         -0.92550628        0.017010
       154         -0.92551308        0.017010
       155         -0.92551727        0.017010
       156         -0.92553126        0.017010
       157         -0.92553327        0.017010
       158         -0.92553589        0.017010
       159         -0.92553647        0.017010
       160         -0.92555417        0.017010
       161         -0.92556205        0.017010
       162         -0.92557214        0.017010
       163         -0.92557775        0.017010
       164         -0.92558021        0.017010
       165         -0.92558074        0.017010
       166         -0.92558348        0.017010
       167         -0.92558561        0.017010
       168         -0.92558642        0.017010
       169         -0.92558970        0.015749
       170         -0.92559238        0.015749
       171         -0.92560511        0.015749
       172         -0.92561360        0.015749
       173         -0.92561543        0.015749
       174         -0.92561968        0.015749
       175         -0.92562684        0.015749
       176         -0.92563002        0.015749
       177         -0.92563227        0.015749
       178         -0.92564907        0.014582
       179         -0.92564971        0.014582
       180         -0.92565237        0.014582
       181         -0.92565363        0.014582
       182         -0.92565619        0.014582
       183         -0.92566270        0.014582
       184         -0.92567637        0.014582
       185         -0.92567699        0.013501
       186         -0.92568168        0.013501
       187         -0.92568649        0.013501
       188         -0.92568953        0.013501
       189         -0.92569091        0.013501
       190         -0.92569359        0.013501
       191         -0.92570419        0.013501
       192         -0.92571607        0.013501
       193         -0.92572386        0.013501
       194         -0.92572478        0.013501
       195         -0.92572637        0.013501
       196         -0.92573153        0.013501
       197         -0.92573261        0.013501
       198         -0.92573541        0.013501
       199         -0.92573857        0.013501
       200         -0.92573984        0.013501
       201         -0.92574288        0.013501
       202         -0.92574458        0.013501
       203         -0.92574547        0.013501
       204         -0.92574629        0.013501
       205         -0.92574658        0.012500
       206         -0.92574957        0.012500
       207         -0.92575422        0.012500
       208         -0.92575535        0.012500
       209         -0.92576594        0.012500
       210         -0.92576779        0.012500
       211         -0.92576832        0.012500
       212         -0.92578339        0.012500
       213         -0.92578672        0.012500
       214         -0.92579471        0.012500
       215         -0.92580145        0.012500
       216         -0.92580470        0.012500
       217         -0.92580678        0.012500
       218         -0.92581204        0.012500
       219         -0.92581903        0.012500
       220         -0.92582136        0.012500
       221         -0.92582839        0.012500
       222         -0.92583668        0.012500
       223         -0.92583739        0.012500
       224         -0.92583960        0.012500
       225         -0.92584733        0.012500
       226         -0.92585424        0.012500
       227         -0.92585688        0.012500
       228         -0.92585876        0.012500
       229         -0.92586774        0.012500
       230         -0.92587060        0.012500
       231         -0.92588049        0.012500
       232         -0.92588528        0.012500
       233         -0.92588879        0.012500
       234         -0.92589554        0.012500
       235         -0.92589642        0.012500
       236         -0.92589948        0.012500
       237         -0.92590168        0.012500
       238         -0.92590251        0.012500
       239         -0.92590452        0.012500
       240         -0.92590794        0.012500
       241         -0.92590877        0.012500
       242         -0.92591836        0.012500
       243         -0.92592313        0.012500
       244         -0.92592888        0.012500
       245         -0.92593814        0.012500
       246         -0.92594751        0.012500
       247         -0.92594768        0.012500
       248         -0.92594842        0.012500
       249         -0.92596254        0.012500
       250         -0.92596556        0.012500
       251         -0.92597464        0.012500
       252         -0.92597605        0.012500
       253         -0.92598253        0.012500
       254         -0.92598714        0.012500
       255         -0.92600015        0.012500
       256         -0.92600702        0.012500
       257         -0.92600742        0.012500
       258         -0.92600795        0.012500
       259         -0.92601407        0.012500
       260         -0.92601608        0.012500
       261         -0.92602409        0.012500
       262         -0.92602614        0.012500
       263         -0.92602861        0.012500
       264         -0.92602982        0.012500
       265         -0.92603748        0.012500
       266         -0.92604342        0.012500
       267         -0.92604743        0.012500
       268         -0.92605082        0.012500
       269         -0.92605763        0.012500
       270         -0.92605777        0.012500
       271         -0.92607180        0.012500
       272         -0.92607704        0.012500
       273         -0.92607732        0.012500
       274         -0.92607907        0.012500
       275         -0.92607980        0.012500
       276         -0.92608234        0.012500
       277         -0.92608833        0.012500
       278         -0.92609774        0.012500
       279         -0.92609939        0.012500
       280         -0.92609974        0.012500
       281         -0.92610008        0.012500
       282         -0.92610224        0.012500
       283         -0.92610929        0.012500
       284         -0.92610996        0.012500
       285         -0.92611154        0.012500
       286         -0.92611651        0.012500
       287         -0.92611919        0.012500
       288         -0.92612075        0.012500
       289         -0.92613192        0.012500
       290         -0.92613207        0.012500
       291         -0.92613637        0.012500
       292         -0.92613990        0.012500
       293         -0.92614616        0.012500
       294         -0.92615272        0.012500
       295         -0.92615645        0.012500
       296         -0.92616010        0.011573
       297         -0.92616321        0.011573
       298         -0.92616728        0.011573
       299         -0.92617672        0.011573
       300         -0.92618453        0.011573
       301         -0.92618816        0.011573
       302         -0.92618877        0.011573
       303         -0.92619237        0.011573
       304         -0.92619600        0.011573
       305         -0.92619742        0.011573
       306         -0.92619744        0.011573
       307         -0.92620381        0.011573
       308         -0.92620623        0.011573
       309         -0.92621472        0.011573
       310         -0.92621691        0.011573
       311         -0.92621858        0.011573
       312         -0.92621970        0.011573
       313         -0.92622272        0.011573
       314         -0.92622837        0.011573
       315         -0.92623041        0.011573
       316         -0.92623107        0.011573
       317         -0.92623528        0.011573
       318         -0.92623657        0.011573
       319         -0.92623951        0.011573
       320         -0.92624608        0.011573
       321         -0.92624945        0.011573
       322         -0.92625600        0.011573
       323         -0.92625907        0.011573
       324         -0.92626082        0.011573
       325         -0.92626275        0.011573
       326         -0.92626920        0.011573
       327         -0.92627046        0.011573
       328         -0.92627749        0.011573
       329         -0.92627881        0.011573
       330         -0.92628248        0.011573
       331         -0.92628274        0.011573
       332         -0.92628497        0.011573
       333         -0.92628705        0.011573
       334         -0.92629405        0.011573
       335         -0.92629733        0.011573
       336         -0.92630164        0.011573
       337         -0.92630350        0.010716
       338         -0.92630359        0.010716
       339         -0.92631060        0.010716
       340         -0.92631256        0.010716
       341         -0.92631500        0.010716
       342         -0.92631995        0.010716
       343         -0.92632310        0.010716
       344         -0.92633017        0.010716
       345         -0.92633622        0.010716
       346         -0.92634506        0.010716
       347         -0.92634572        0.010716
       348         -0.92635144        0.010716
       349         -0.92636258        0.010716
       350         -0.92636342        0.010716
       351         -0.92636422        0.010716
       352         -0.92637450        0.010716
       353         -0.92637466        0.010716
       354         -0.92637633        0.010716
       355         -0.92637700        0.010716
       356         -0.92637987        0.010716
       357         -0.92638824        0.010716
       358         -0.92639522        0.010716
       359         -0.92639694        0.010716
       360         -0.92639739        0.010716
       361         -0.92640333        0.010716
       362         -0.92640426        0.010716
       363         -0.92640845        0.010716
       364         -0.92641210        0.010716
       365         -0.92641851        0.010716
       366         -0.92642209        0.010716
       367         -0.92642237        0.010716
       368         -0.92643064        0.010716
       369         -0.92643095        0.010716
       370         -0.92643418        0.010716
       371         -0.92643726        0.010716
       372         -0.92644314        0.010716
       373         -0.92644827        0.010716
       374         -0.92644844        0.010716
       375         -0.92645367        0.010716
       376         -0.92645766        0.010716
       377         -0.92645845        0.010716
       378         -0.92646226        0.010716
       379         -0.92646762        0.010716
       380         -0.92648485        0.010716
       381         -0.92648545        0.010716
       382         -0.92648749        0.010716
       383         -0.92648843        0.010716
       384         -0.92648910        0.010716
       385         -0.92649471        0.010716
       386         -0.92649509        0.010716
       387         -0.92649551        0.010716
       388         -0.92649641        0.010716
       389         -0.92649844        0.010716
       390         -0.92649877        0.010716
       391         -0.92650515        0.010716
       392         -0.92651267        0.010716
       393         -0.92651302        0.010716
       394         -0.92651366        0.010716
       395         -0.92651932        0.010716
       396         -0.92652241        0.010716
       397         -0.92652412        0.010716
       398         -0.92652811        0.010716
       399         -0.92652838        0.010716
       400         -0.92652874        0.010716
       401         -0.92653937        0.010716
       402         -0.92654300        0.010716
       403         -0.92654730        0.010716
       404         -0.92655152        0.010716
       405         -0.92655359        0.010716
       406         -0.92656104        0.010716
       407         -0.92656371        0.010716
       408         -0.92656435        0.010716
       409         -0.92656883        0.010716
       410         -0.92658006        0.010716
       411         -0.92658111        0.010716
       412         -0.92658258        0.010716
       413         -0.92658706        0.010716
       414         -0.92658863        0.010716
       415         -0.92659103        0.010716
       416         -0.92659728        0.010716
       417         -0.92660555        0.010716
       418         -0.92660755        0.010716
       419         -0.92661456        0.010716
       420         -0.92661749        0.010716
       421         -0.92662188        0.010716
       422         -0.92662627        0.010716
       423         -0.92662726        0.010716
       424         -0.92663010        0.010716
       425         -0.92663081        0.010716
       426         -0.92663357        0.010716
       427         -0.92664240        0.010716
       428         -0.92664502        0.010716
       429         -0.92664847        0.010716
       430         -0.92665316        0.010716
       431         -0.92665325        0.010716
       432         -0.92665570        0.010716
       433         -0.92665575        0.010716
       434         -0.92666009        0.010716
       435         -0.92666510        0.010716
       436         -0.92666966        0.010716
       437         -0.92667293        0.010716
       438         -0.92667505        0.010716
       439         -0.92667804        0.010716
       440         -0.92668708        0.010716
       441         -0.92669359        0.010716
       442         -0.92669547        0.010716
       443         -0.92670056        0.010716
       444         -0.92670112        0.010716
       445         -0.92670209        0.010716
       446         -0.92670902        0.010716
       447         -0.92671705        0.010716
       448         -0.92671812        0.010716
       449         -0.92671881        0.010716
       450         -0.92672038        0.010716
       451         -0.92672626        0.010716
       452         -0.92672748        0.010716
       453         -0.92673322        0.010716
       454         -0.92673487        0.010716
       455         -0.92673663        0.010716
       456         -0.92673981        0.010716
       457         -0.92674489        0.010716
       458         -0.92674629        0.010716
       459         -0.92674907        0.010716
       460         -0.92674947        0.010716
       461         -0.92675102        0.010716
       462         -0.92675443        0.010716
       463         -0.92676070        0.010716
       464         -0.92676085        0.010716
       465         -0.92676366        0.010716
       466         -0.92676524        0.010716
       467         -0.92676659        0.010716
       468         -0.92676924        0.010716
       469         -0.92678204        0.010716
       470         -0.92678881        0.010716
       471         -0.92678946        0.010716
       472         -0.92679531        0.010716
       473         -0.92679622        0.010716
       474         -0.92679715        0.010716
       475         -0.92680295        0.010716
       476         -0.92681101        0.010716
       477         -0.92681369        0.010716
       478         -0.92681929        0.010716
       479         -0.92682027        0.010716
       480         -0.92682101        0.010716
       481         -0.92682135        0.010716
       482         -0.92682373        0.010716
       483         -0.92682656        0.010716
       484         -0.92682709        0.010716
       485         -0.92682818        0.010716
       486         -0.92683133        0.010716
       487         -0.92683447        0.010716
       488         -0.92684338        0.010716
       489         -0.92684790        0.010716
       490         -0.92685065        0.010716
       491         -0.92685159        0.010716
       492         -0.92685704        0.010716
       493         -0.92686010        0.010716
       494         -0.92686186        0.010716
       495         -0.92686473        0.010716
       496         -0.92686850        0.010716
       497         -0.92687233        0.010716
       498         -0.92687422        0.010716
       499         -0.92687952        0.010716
       500         -0.92688198        0.010716
       501         -0.92688452        0.010716
       502         -0.92688833        0.010716
       503         -0.92689225        0.010716
       504         -0.92689407        0.010716
       505         -0.92689413        0.010716
       506         -0.92689588        0.010716
       507         -0.92690156        0.010716
       508         -0.92690954        0.010716
       509         -0.92691552        0.010716
       510         -0.92692112        0.010716
       511         -0.92692114        0.010716
       512         -0.92692140        0.010716
       513         -0.92692693        0.010716
       514         -0.92692733        0.010716
       515         -0.92692946        0.010716
       516         -0.92693154        0.010716
       517         -0.92693752        0.010716
       518         -0.92694484        0.010716
       519         -0.92694884        0.010716
       520         -0.92695097        0.010716
       521         -0.92695924        0.010716
       522         -0.92696417        0.010716
       523         -0.92696839        0.010716
       524         -0.92696867        0.010716
       525         -0.92697552        0.010716
       526         -0.92697796        0.010716
       527         -0.92698003        0.010716
       528         -0.92698204        0.010716
       529         -0.92698781        0.010716
       530         -0.92699934        0.010716
       531         -0.92699957        0.010716
       532         -0.92700128        0.010716
       533         -0.92700283        0.010716
       534         -0.92700327        0.010716
       535         -0.92700389        0.010716
       536         -0.92700434        0.010716
       537         -0.92700515        0.010716
       538         -0.92701094        0.010716
       539         -0.92701781        0.010716
       540         -0.92701960        0.010716
       541         -0.92702115        0.010716
       542         -0.92702264        0.010716
       543         -0.92702853        0.010716
       544         -0.92703539        0.010716
       545         -0.92703660        0.010716
       546         -0.92703746        0.010716
       547         -0.92704130        0.010716
       548         -0.92704359        0.010716
       549         -0.92705199        0.010716
       550         -0.92705351        0.010716
       551         -0.92705667        0.010716
       552         -0.92706045        0.010716
       553         -0.92706217        0.010716
       554         -0.92706689        0.010716
       555         -0.92707091        0.010716
       556         -0.92707492        0.010716
       557         -0.92708062        0.010716
       558         -0.92708479        0.010716
       559         -0.92709051        0.010716
       560         -0.92709650        0.010716
       561         -0.92710410        0.010716
       562         -0.92710484        0.010716
       563         -0.92711460        0.010716
       564         -0.92711471        0.010716
       565         -0.92712300        0.010716
       566         -0.92712955        0.010716
       567         -0.92712959        0.010716
       568         -0.92713278        0.010716
       569         -0.92714224        0.010716
       570         -0.92714311        0.010716
       571         -0.92714328        0.010716
       572         -0.92714639        0.010716
       573         -0.92714900        0.010716
       574         -0.92715754        0.010716
       575         -0.92715864        0.010716
       576         -0.92716011        0.010716
       577         -0.92716758        0.010716
       578         -0.92716884        0.010716
       579         -0.92717450        0.010716
       580         -0.92717633        0.010716
       581         -0.92717846        0.010716
       582         -0.92718915        0.010716
       583         -0.92718936        0.010716
       584         -0.92719117        0.010716
       585         -0.92719555        0.010716
       586         -0.92720019        0.010716
       587         -0.92720322        0.010716
       588         -0.92720507        0.010716
       589         -0.92720531        0.010716
       590         -0.92720556        0.010716
       591         -0.92720562        0.010716
       592         -0.92721117        0.010716
       593         -0.92721170        0.010716
       594         -0.92721209        0.010716
       595         -0.92721807        0.010716
       596         -0.92721951        0.010716
       597         -0.92722246        0.010716
       598         -0.92722541        0.010716
       599         -0.92722557        0.010716
       600         -0.92722725        0.010716
       601         -0.92723640        0.010716
       602         -0.92724182        0.010716
       603         -0.92724189        0.010716
       604         -0.92724949        0.010716
       605         -0.92725123        0.010716
       606         -0.92725560        0.010716
       607         -0.92726397        0.010716
       608         -0.92726724        0.010716
       609         -0.92726919        0.010716
       610         -0.92726996        0.010716
       611         -0.92727338        0.010716
       612         -0.92727675        0.010716
       613         -0.92727913        0.010716
       614         -0.92728256        0.010716
       615         -0.92728533        0.010716
       616         -0.92728577        0.010716
       617         -0.92728603        0.010716
       618         -0.92728714        0.010716
       619         -0.92729714        0.010716
       620         -0.92729717        0.010716
       621         -0.92729786        0.010716
       622         -0.92730035        0.010716
       623         -0.92730656        0.010716
       624         -0.92731600        0.010716
       625         -0.92731913        0.010716
       626         -0.92731960        0.010716
       627         -0.92732505        0.010716
       628         -0.92733531        0.010716
       629         -0.92733542        0.010716
       630         -0.92733555        0.010716
       631         -0.92733752        0.010716
       632         -0.92734547        0.010716
       633         -0.92734585        0.010716
       634         -0.92734649        0.010716
       635         -0.92735088        0.010716
       636         -0.92735383        0.010716
       637         -0.92735421        0.010716
       638         -0.92735481        0.010716
       639         -0.92735682        0.009921
       640         -0.92736302        0.009921
       641         -0.92736341        0.009921
       642         -0.92736641        0.009921
       643         -0.92736983        0.009921
       644         -0.92737061        0.009921
       645         -0.92737359        0.009921
       646         -0.92737452        0.009921
       647         -0.92737517        0.009921
       648         -0.92737879        0.009921
       649         -0.92738285        0.009921
       650         -0.92739458        0.009921
       651         -0.92739482        0.009186
       652         -0.92739510        0.009186
       653         -0.92739785        0.009186
       654         -0.92739867        0.009186
       655         -0.92740035        0.009186
       656         -0.92740184        0.009186
       657         -0.92740245        0.009186
       658         -0.92740250        0.009186
       659         -0.92740458        0.009186
       660         -0.92740611        0.009186
       661         -0.92740759        0.009186
       662         -0.92741282        0.009186
       663         -0.92741320        0.009186
       664         -0.92741434        0.009186
       665         -0.92741462        0.009186
       666         -0.92741511        0.009186
       667         -0.92741618        0.009186
       668         -0.92741630        0.009186
       669         -0.92742216        0.009186
       670         -0.92742403        0.009186
       671         -0.92743092        0.009186
       672         -0.92743524        0.009186
       673         -0.92744178        0.009186
       674         -0.92744585        0.009186
       675         -0.92744718        0.009186
       676         -0.92744907        0.009186
       677         -0.92745242        0.009186
       678         -0.92745554        0.009186
       679         -0.92745773        0.009186
       680         -0.92745850        0.009186
       681         -0.92745983        0.009186
       682         -0.92746460        0.009186
       683         -0.92746478        0.009186
       684         -0.92746598        0.009186
       685         -0.92747137        0.009186
       686         -0.92747398        0.009186
       687         -0.92747691        0.009186
       688         -0.92748151        0.009186
       689         -0.92748175        0.009186
       690         -0.92748340        0.009186
       691         -0.92748414        0.009186
       692         -0.92749080        0.009186
       693         -0.92749086        0.009186
       694         -0.92749267        0.009186
       695         -0.92749345        0.009186
       696         -0.92749384        0.009186
       697         -0.92749532        0.009186
       698         -0.92749760        0.009186
       699         -0.92749793        0.009186
       700         -0.92750096        0.009186
       701         -0.92750333        0.009186
       702         -0.92750841        0.009186
       703         -0.92751106        0.009186
       704         -0.92751647        0.009186
       705         -0.92751797        0.009186
       706         -0.92752204        0.009186
       707         -0.92752458        0.009186
       708         -0.92752731        0.009186
       709         -0.92752924        0.009186
       710         -0.92752988        0.009186
       711         -0.92753097        0.009186
       712         -0.92753240        0.009186
       713         -0.92753496        0.009186
       714         -0.92754119        0.009186
       715         -0.92754447        0.009186
       716         -0.92754829        0.009186
       717         -0.92754881        0.009186
       718         -0.92755154        0.009186
       719         -0.92755663        0.009186
       720         -0.92755798        0.009186
       721         -0.92756002        0.009186
       722         -0.92756067        0.009186
       723         -0.92756242        0.009186
       724         -0.92756900        0.009186
       725         -0.92756922        0.009186
       726         -0.92756944        0.009186
       727         -0.92757135        0.009186
       728         -0.92757292        0.009186
       729         -0.92757419        0.009186
       730         -0.92758066        0.009186
       731         -0.92758527        0.009186
       732         -0.92758859        0.009186
       733         -0.92759173        0.009186
       734         -0.92759414        0.009186
       735         -0.92759484        0.009186
       736         -0.92759967        0.009186
       737         -0.92759984        0.009186
       738         -0.92760277        0.009186
       739         -0.92760428        0.009186
       740         -0.92760428        0.009186
       741         -0.92760652        0.009186
       742         -0.92761010        0.009186
       743         -0.92761508        0.009186
       744         -0.92761573        0.009186
       745         -0.92761707        0.009186
       746         -0.92762096        0.009186
       747         -0.92762669        0.009186
       748         -0.92762964        0.009186
       749         -0.92763106        0.009186
       750         -0.92763295        0.009186
       751         -0.92763512        0.009186
       752         -0.92763960        0.009186
       753         -0.92764128        0.009186
       754         -0.92764340        0.009186
       755         -0.92764737        0.009186
       756         -0.92765338        0.009186
       757         -0.92766272        0.009186
       758         -0.92766672        0.009186
       759         -0.92767052        0.009186
       760         -0.92767115        0.009186
       761         -0.92767394        0.009186
       762         -0.92767567        0.009186
       763         -0.92767699        0.009186
       764         -0.92767921        0.009186
       765         -0.92767984        0.009186
       766         -0.92768207        0.009186
       767         -0.92769068        0.009186
       768         -0.92769190        0.009186
       769         -0.92769347        0.009186
       770         -0.92769543        0.009186
       771         -0.92769603        0.009186
       772         -0.92769733        0.009186
       773         -0.92769761        0.009186
       774         -0.92769776        0.009186
       775         -0.92769968        0.009186
       776         -0.92770037        0.009186
       777         -0.92770058        0.009186
       778         -0.92770072        0.009186
       779         -0.92770400        0.009186
       780         -0.92770735        0.009186
       781         -0.92771834        0.009186
       782         -0.92772219        0.009186
       783         -0.92772293        0.009186
       784         -0.92772810        0.009186
       785         -0.92772821        0.009186
       786         -0.92773336        0.009186
       787         -0.92774166        0.009186
       788         -0.92774321        0.009186
       789         -0.92774323        0.009186
       790         -0.92774636        0.009186
       791         -0.92774993        0.009186
       792         -0.92775067        0.009186
       793         -0.92775123        0.009186
       794         -0.92775143        0.009186
       795         -0.92776108        0.009186
       796         -0.92776133        0.009186
       797         -0.92776176        0.009186
       798         -0.92776440        0.009186
       799         -0.92776500        0.009186
       800         -0.92776567        0.009186
       801         -0.92776601        0.009186
       802         -0.92777310        0.009186
       803         -0.92777403        0.009186
       804         -0.92777855        0.009186
       805         -0.92777910        0.009186
       806         -0.92778303        0.009186
       807         -0.92778651        0.009186
       808         -0.92779010        0.009186
       809         -0.92779642        0.009186
       810         -0.92779689        0.009186
       811         -0.92780455        0.009186
       812         -0.92780487        0.009186
       813         -0.92781012        0.009186
       814         -0.92781436        0.009186
       815         -0.92782215        0.009186
       816         -0.92782680        0.009186
       817         -0.92782875        0.009186
       818         -0.92783000        0.009186
       819         -0.92783194        0.009186
       820         -0.92783778        0.009186
       821         -0.92784169        0.009186
       822         -0.92784274        0.009186
       823         -0.92784410        0.009186
       824         -0.92784779        0.009186
       825         -0.92785329        0.009186
       826         -0.92785684        0.009186
       827         -0.92785741        0.009186
       828         -0.92786110        0.009186
       829         -0.92786352        0.009186
       830         -0.92786455        0.009186
       831         -0.92786538        0.009186
       832         -0.92786947        0.009186
       833         -0.92787431        0.009186
       834         -0.92787866        0.009186
       835         -0.92788364        0.009186
       836         -0.92788526        0.009186
       837         -0.92788550        0.009186
       838         -0.92788812        0.009186
       839         -0.92789064        0.009186
       840         -0.92789136        0.009186
       841         -0.92789235        0.009186
       842         -0.92789426        0.009186
       843         -0.92789567        0.009186
       844         -0.92789648        0.009186
       845         -0.92790584        0.009186
       846         -0.92790683        0.009186
       847         -0.92791449        0.009186
       848         -0.92791607        0.009186
       849         -0.92791642        0.009186
       850         -0.92792124        0.009186
       851         -0.92792396        0.009186
       852         -0.92792397        0.009186
       853         -0.92792960        0.009186
       854         -0.92793249        0.009186
       855         -0.92793380        0.009186
       856         -0.92793571        0.009186
       857         -0.92793675        0.009186
       858         -0.92793952        0.009186
       859         -0.92794257        0.009186
       860         -0.92794461        0.009186
       861         -0.92794937        0.009186
       862         -0.92795115        0.009186
       863         -0.92795367        0.009186
       864         -0.92795839        0.009186
       865         -0.92796084        0.009186
       866         -0.92796101        0.009186
       867         -0.92796326        0.009186
       868         -0.92796737        0.009186
       869         -0.92797000        0.009186
       870         -0.92797402        0.009186
       871         -0.92797439        0.009186
       872         -0.92797845        0.009186
       873         -0.92798070        0.009186
       874         -0.92798313        0.009186
       875         -0.92798538        0.009186
       876         -0.92798587        0.009186
       877         -0.92798651        0.009186
       878         -0.92798851        0.009186
       879         -0.92799669        0.009186
       880         -0.92799674        0.009186
       881         -0.92799940        0.009186
       882         -0.92800259        0.009186
       883         -0.92800390        0.009186
       884         -0.92800626        0.009186
       885         -0.92800901        0.009186
       886         -0.92801248        0.009186
       887         -0.92801425        0.009186
       888         -0.92801763        0.009186
       889         -0.92802128        0.009186
       890         -0.92802185        0.009186
       891         -0.92802340        0.009186
       892         -0.92802534        0.009186
       893         -0.92802647        0.009186
       894         -0.92803351        0.009186
       895         -0.92803519        0.009186
       896         -0.92803520        0.009186
       897         -0.92803531        0.009186
       898         -0.92804200        0.009186
       899         -0.92804656        0.009186
       900         -0.92804812        0.009186
       901         -0.92804988        0.009186
       902         -0.92805242        0.009186
       903         -0.92805495        0.009186
       904         -0.92805531        0.009186
       905         -0.92805846        0.009186
       906         -0.92806101        0.009186
       907         -0.92806321        0.009186
       908         -0.92806693        0.009186
       909         -0.92806977        0.009186
       910         -0.92807158        0.009186
       911         -0.92807170        0.009186
       912         -0.92807524        0.009186
       913         -0.92808172        0.009186
       914         -0.92808625        0.009186
       915         -0.92808847        0.009186
       916         -0.92809005        0.009186
       917         -0.92809545        0.009186
       918         -0.92809564        0.009186
       919         -0.92809615        0.009186
       920         -0.92810122        0.009186
       921         -0.92810126        0.009186
       922         -0.92810263        0.009186
       923         -0.92810795        0.009186
       924         -0.92810839        0.009186
       925         -0.92811133        0.009186
       926         -0.92811658        0.009186
       927         -0.92811754        0.009186
       928         -0.92811842        0.009186
       929         -0.92812023        0.009186
       930         -0.92812060        0.009186
       931         -0.92812413        0.009186
       932         -0.92812464        0.009186
       933         -0.92812912        0.009186
       934         -0.92813071        0.009186
       935         -0.92813275        0.009186
       936         -0.92813408        0.009186
       937         -0.92813451        0.009186
       938         -0.92813559        0.009186
       939         -0.92813942        0.009186
       940         -0.92814431        0.009186
       941         -0.92814490        0.009186
       942         -0.92814636        0.009186
       943         -0.92815327        0.009186
       944         -0.92815574        0.009186
       945         -0.92816100        0.009186
       946         -0.92816157        0.009186
       947         -0.92816247        0.009186
       948         -0.92816302        0.009186
       949         -0.92816575        0.009186
       950         -0.92817248        0.009186
       951         -0.92817884        0.009186
       952         -0.92818057        0.009186
       953         -0.92818095        0.009186
       954         -0.92818568        0.009186
       955         -0.92818648        0.009186
       956         -0.92818991        0.009186
       957         -0.92819391        0.009186
       958         -0.92819503        0.009186
       959         -0.92819571        0.009186
       960         -0.92820062        0.009186
       961         -0.92820062        0.009186
       962         -0.92820095        0.009186
       963         -0.92820180        0.009186
       964         -0.92820732        0.009186
       965         -0.92821274        0.009186
       966         -0.92821564        0.009186
       967         -0.92821623        0.009186
       968         -0.92821940        0.009186
       969         -0.92821954        0.009186
       970         -0.92822022        0.009186
       971         -0.92822487        0.009186
       972         -0.92822898        0.009186
       973         -0.92823065        0.009186
       974         -0.92823550        0.009186
       975         -0.92823556        0.009186
       976         -0.92823730        0.009186
       977         -0.92823749        0.009186
       978         -0.92823814        0.009186
       979         -0.92824026        0.009186
       980         -0.92824197        0.009186
       981         -0.92824227        0.009186
       982         -0.92824527        0.009186
       983         -0.92824568        0.009186
       984         -0.92824784        0.009186
       985         -0.92825205        0.009186
       986         -0.92825992        0.009186
       987         -0.92826076        0.009186
       988         -0.92826134        0.009186
       989         -0.92826628        0.009186
       990         -0.92826802        0.009186
       991         -0.92826920        0.009186
       992         -0.92827386        0.009186
       993         -0.92827391        0.009186
       994         -0.92827777        0.009186
       995         -0.92828533        0.009186
       996         -0.92828833        0.009186
       997         -0.92829202        0.009186
       998         -0.92829309        0.009186
       999         -0.92829851        0.009186
      1000         -0.92829859        0.009186
      1001         -0.92830057        0.009186
      1002         -0.92830535        0.009186
      1003         -0.92831016        0.009186
      1004         -0.92831060        0.009186
      1005         -0.92831333        0.009186
      1006         -0.92831499        0.009186
      1007         -0.92831711        0.009186
      1008         -0.92832183        0.009186
      1009         -0.92832496        0.009186
      1010         -0.92832701        0.009186
      1011         -0.92832811        0.009186
      1012         -0.92833189        0.009186
      1013         -0.92833547        0.009186
      1014         -0.92833687        0.009186
      1015         -0.92833738        0.009186
      1016         -0.92833760        0.009186
      1017         -0.92833794        0.009186
      1018         -0.92834200        0.009186
      1019         -0.92834253        0.009186
      1020         -0.92834962        0.009186
      1021         -0.92835452        0.009186
      1022         -0.92835788        0.009186
      1023         -0.92835877        0.009186
      1024         -0.92836600        0.009186
      1025         -0.92836675        0.009186
      1026         -0.92836840        0.009186
      1027         -0.92837199        0.008505
      1028         -0.92837337        0.008505
      1029         -0.92837568        0.008505
      1030         -0.92837717        0.008505
      1031         -0.92838329        0.008505
      1032         -0.92838698        0.008505
      1033         -0.92838900        0.008505
      1034         -0.92839092        0.008505
      1035         -0.92839256        0.008505
      1036         -0.92839880        0.008505
      1037         -0.92840185        0.008505
      1038         -0.92840370        0.008505
      1039         -0.92840384        0.008505
      1040         -0.92841055        0.008505
      1041         -0.92841331        0.008505
      1042         -0.92841477        0.008505
      1043         -0.92841745        0.008505
      1044         -0.92841779        0.008505
      1045         -0.92842251        0.008505
      1046         -0.92842758        0.008505
      1047         -0.92842785        0.008505
      1048         -0.92842964        0.008505
      1049         -0.92843266        0.008505
      1050         -0.92843275        0.008505
      1051         -0.92843664        0.008505
      1052         -0.92843858        0.008505
      1053         -0.92843908        0.008505
      1054         -0.92844055        0.008505
      1055         -0.92844113        0.008505
      1056         -0.92844369        0.008505
      1057         -0.92844399        0.008505
      1058         -0.92844537        0.008505
      1059         -0.92844655        0.008505
      1060         -0.92844826        0.008505
      1061         -0.92845082        0.008505
      1062         -0.92845092        0.008505
      1063         -0.92845136        0.008505
      1064         -0.92845974        0.008505
      1065         -0.92846268        0.008505
      1066         -0.92846670        0.008505
      1067         -0.92846679        0.008505
      1068         -0.92846758        0.007875
      1069         -0.92847012        0.007875
      1070         -0.92847024        0.007875
      1071         -0.92847138        0.007875
      1072         -0.92847264        0.007875
      1073         -0.92847780        0.007875
      1074         -0.92847788        0.007875
      1075         -0.92848006        0.007875
      1076         -0.92848176        0.007875
      1077         -0.92848243        0.007875
      1078         -0.92848545        0.007875
      1079         -0.92848882        0.007875
      1080         -0.92848927        0.007875
      1081         -0.92849392        0.007875
      1082         -0.92849444        0.007875
      1083         -0.92849608        0.007875
      1084         -0.92849684        0.007875
      1085         -0.92850057        0.007875
      1086         -0.92850146        0.007875
      1087         -0.92850303        0.007875
      1088         -0.92850344        0.007875
      1089         -0.92850533        0.007875
      1090         -0.92850939        0.007875
      1091         -0.92851017        0.007875
      1092         -0.92851034        0.007875
      1093         -0.92851205        0.007875
      1094         -0.92851324        0.007875
      1095         -0.92851397        0.007875
      1096         -0.92851781        0.007875
      1097         -0.92851904        0.007875
      1098         -0.92851912        0.007875
      1099         -0.92852252        0.007875
      1100         -0.92852577        0.007875
      1101         -0.92853044        0.007875
      1102         -0.92853060        0.007875
      1103         -0.92853401        0.007875
      1104         -0.92853585        0.007875
      1105         -0.92853693        0.007875
      1106         -0.92854132        0.007875
      1107         -0.92854136        0.007291
      1108         -0.92854152        0.007291
      1109         -0.92854550        0.007291
      1110         -0.92854701        0.007291
      1111         -0.92854780        0.007291
      1112         -0.92855186        0.007291
      1113         -0.92855206        0.007291
      1114         -0.92855440        0.007291
      1115         -0.92855499        0.007291
      1116         -0.92855585        0.007291
      1117         -0.92855882        0.007291
      1118         -0.92855982        0.007291
      1119         -0.92856119        0.007291
      1120         -0.92856324        0.007291
      1121         -0.92856557        0.007291
      1122         -0.92856802        0.007291
      1123         -0.92856841        0.007291
      1124         -0.92857038        0.007291
      1125         -0.92857295        0.007291
      1126         -0.92857458        0.007291
      1127         -0.92857499        0.007291
      1128         -0.92857535        0.007291
      1129         -0.92857642        0.007291
      1130         -0.92857767        0.007291
      1131         -0.92857901        0.007291
      1132         -0.92857987        0.007291
      1133         -0.92858144        0.007291
      1134         -0.92858170        0.007291
      1135         -0.92858432        0.007291
      1136         -0.92858647        0.007291
      1137         -0.92858933        0.007291
      1138         -0.92859054        0.007291
      1139         -0.92859111        0.007291
      1140         -0.92859633        0.007291
      1141         -0.92859702        0.007291
      1142         -0.92860123        0.007291
      1143         -0.92860336        0.007291
      1144         -0.92860444        0.007291
      1145         -0.92860848        0.007291
      1146         -0.92861116        0.007291
      1147         -0.92861189        0.007291
      1148         -0.92861221        0.007291
      1149         -0.92861679        0.007291
      1150         -0.92861913        0.007291
      1151         -0.92861986        0.007291
      1152         -0.92862151        0.007291
      1153         -0.92862394        0.007291
      1154         -0.92862481        0.007291
      1155         -0.92862611        0.007291
      1156         -0.92862680        0.007291
      1157         -0.92862862        0.007291
      1158         -0.92862878        0.007291
      1159         -0.92863150        0.007291
      1160         -0.92863263        0.007291
      1161         -0.92863374        0.007291
      1162         -0.92863526        0.007291
      1163         -0.92863583        0.007291
      1164         -0.92863783        0.007291
      1165         -0.92863994        0.007291
      1166         -0.92864556        0.007291
      1167         -0.92864640        0.007291
      1168         -0.92864917        0.007291
      1169         -0.92865068        0.007291
      1170         -0.92865300        0.007291
      1171         -0.92865464        0.007291
      1172         -0.92865589        0.007291
      1173         -0.92865633        0.007291
      1174         -0.92865832        0.007291
      1175         -0.92865888        0.007291
      1176         -0.92865954        0.007291
      1177         -0.92866048        0.007291
      1178         -0.92866079        0.007291
      1179         -0.92866163        0.007291
      1180         -0.92866328        0.007291
      1181         -0.92866433        0.007291
      1182         -0.92866605        0.007291
      1183         -0.92866783        0.007291
      1184         -0.92866805        0.007291
      1185         -0.92867158        0.007291
      1186         -0.92867344        0.007291
      1187         -0.92867389        0.007291
      1188         -0.92867835        0.007291
      1189         -0.92867978        0.007291
      1190         -0.92868017        0.007291
      1191         -0.92868229        0.007291
      1192         -0.92868326        0.007291
      1193         -0.92868508        0.007291
      1194         -0.92868564        0.007291
      1195         -0.92868969        0.007291
      1196         -0.92869437        0.007291
      1197         -0.92869523        0.007291
      1198         -0.92869882        0.007291
      1199         -0.92869991        0.007291
      1200         -0.92870266        0.007291
      1201         -0.92870274        0.007291
      1202         -0.92870514        0.007291
      1203         -0.92870532        0.007291
      1204         -0.92870657        0.007291
      1205         -0.92871000        0.007291
      1206         -0.92871002        0.007291
      1207         -0.92871348        0.007291
      1208         -0.92871369        0.007291
      1209         -0.92871387        0.007291
      1210         -0.92871757        0.007291
      1211         -0.92872007        0.007291
      1212         -0.92872632        0.007291
      1213         -0.92872682        0.007291
      1214         -0.92872866        0.007291
      1215         -0.92873117        0.007291
      1216         -0.92873208        0.007291
      1217         -0.92873411        0.007291
      1218         -0.92873639        0.007291
      1219         -0.92873647        0.007291
      1220         -0.92873813        0.007291
      1221         -0.92874158        0.007291
      1222         -0.92874526        0.007291
      1223         -0.92874607        0.007291
      1224         -0.92874627        0.007291
      1225         -0.92874697        0.006750
      1226         -0.92874747        0.006750
      1227         -0.92874844        0.006750
      1228         -0.92874984        0.006750
      1229         -0.92875087        0.006750
      1230         -0.92875315        0.006750
      1231         -0.92875405        0.006750
      1232         -0.92875940        0.006750
      1233         -0.92876023        0.006750
      1234         -0.92876024        0.006750
      1235         -0.92876219        0.006750
      1236         -0.92876301        0.006750
      1237         -0.92876451        0.006750
      1238         -0.92877001        0.006750
      1239         -0.92877112        0.006750
      1240         -0.92877150        0.006750
      1241         -0.92877423        0.006750
      1242         -0.92877526        0.006750
      1243         -0.92877530        0.006750
      1244         -0.92877868        0.006750
      1245         -0.92877898        0.006750
      1246         -0.92877964        0.006750
      1247         -0.92878161        0.006750
      1248         -0.92878385        0.006750
      1249         -0.92878656        0.006750
      1250         -0.92878784        0.006750
      1251         -0.92879170        0.006750
      1252         -0.92879402        0.006750
      1253         -0.92879408        0.006750
      1254         -0.92879700        0.006750
      1255         -0.92879721        0.006750
      1256         -0.92879841        0.006750
      1257         -0.92880100        0.006750
      1258         -0.92880123        0.006750
      1259         -0.92880174        0.006750
      1260         -0.92880363        0.006750
      1261         -0.92880659        0.006750
      1262         -0.92881008        0.006750
      1263         -0.92881099        0.006750
      1264         -0.92881161        0.006750
      1265         -0.92881316        0.006750
      1266         -0.92881330        0.006750
      1267         -0.92881496        0.006750
      1268         -0.92881551        0.006750
      1269         -0.92881566        0.006750
      1270         -0.92881605        0.006750
      1271         -0.92881619        0.006750
      1272         -0.92881799        0.006750
      1273         -0.92882159        0.006750
      1274         -0.92882331        0.006750
      1275         -0.92882434        0.006750
      1276         -0.92882484        0.006250
      1277         -0.92882549        0.006250
      1278         -0.92882620        0.006250
      1279         -0.92882694        0.006250
      1280         -0.92882729        0.006250
      1281         -0.92882737        0.006250
      1282         -0.92883125        0.006250
      1283         -0.92883195        0.006250
      1284         -0.92883471        0.006250
      1285         -0.92883520        0.006250
      1286         -0.92883572        0.006250
      1287         -0.92883676        0.006250
      1288         -0.92884046        0.006250
      1289         -0.92884108        0.006250
      1290         -0.92884154        0.006250
      1291         -0.92884354        0.006250
      1292         -0.92884401        0.006250
      1293         -0.92884544        0.006250
      1294         -0.92884652        0.006250
      1295         -0.92884715        0.006250
      1296         -0.92884747        0.006250
      1297         -0.92884860        0.006250
      1298         -0.92885151        0.006250
      1299         -0.92885395        0.006250
      1300         -0.92885822        0.006250
      1301         -0.92885912        0.006250
      1302         -0.92886246        0.006250
      1303         -0.92886304        0.006250
      1304         -0.92886403        0.006250
      1305         -0.92886555        0.006250
      1306         -0.92886630        0.006250
      1307         -0.92886778        0.006250
      1308         -0.92886958        0.006250
      1309         -0.92887049        0.006250
      1310         -0.92887185        0.006250
      1311         -0.92887416        0.006250
      1312         -0.92887672        0.006250
      1313         -0.92888122        0.006250
      1314         -0.92888181        0.006250
      1315         -0.92888196        0.006250
      1316         -0.92888355        0.006250
      1317         -0.92888371        0.006250
      1318         -0.92888501        0.006250
      1319         -0.92888513        0.006250
      1320         -0.92888840        0.006250
      1321         -0.92888844        0.006250
      1322         -0.92888975        0.006250
      1323         -0.92888993        0.006250
      1324         -0.92889008        0.006250
      1325         -0.92889192        0.006250
      1326         -0.92889272        0.006250
      1327         -0.92889507        0.006250
      1328         -0.92889843        0.006250
      1329         -0.92889885        0.006250
      1330         -0.92889905        0.006250
      1331         -0.92890052        0.006250
      1332         -0.92890248        0.006250
      1333         -0.92890421        0.006250
      1334         -0.92890421        0.006250
      1335         -0.92890616        0.006250
      1336         -0.92890917        0.006250
      1337         -0.92890954        0.006250
      1338         -0.92891136        0.006250
      1339         -0.92891355        0.006250
      1340         -0.92891357        0.006250
      1341         -0.92891454        0.006250
      1342         -0.92891922        0.006250
      1343         -0.92892111        0.006250
      1344         -0.92892195        0.006250
      1345         -0.92892245        0.006250
      1346         -0.92892290        0.006250
      1347         -0.92892427        0.006250
      1348         -0.92892596        0.006250
      1349         -0.92893012        0.006250
      1350         -0.92893071        0.006250
      1351         -0.92893188        0.006250
      1352         -0.92893275        0.006250
      1353         -0.92893317        0.006250
      1354         -0.92893330        0.006250
      1355         -0.92893347        0.006250
      1356         -0.92893430        0.006250
      1357         -0.92893535        0.006250
      1358         -0.92893639        0.006250
      1359         -0.92893822        0.006250
      1360         -0.92893910        0.006250
      1361         -0.92893957        0.006250
      1362         -0.92893957        0.006250
      1363         -0.92894159        0.006250
      1364         -0.92894250        0.006250
      1365         -0.92894329        0.006250
      1366         -0.92894634        0.006250
      1367         -0.92894648        0.006250
      1368         -0.92894651        0.006250
      1369         -0.92894842        0.006250
      1370         -0.92895015        0.006250
      1371         -0.92895052        0.006250
      1372         -0.92895097        0.006250
      1373         -0.92895255        0.006250
      1374         -0.92895412        0.006250
      1375         -0.92895506        0.006250
      1376         -0.92895577        0.006250
      1377         -0.92895611        0.006250
      1378         -0.92895754        0.006250
      1379         -0.92895855        0.006250
      1380         -0.92896146        0.006250
      1381         -0.92896185        0.006250
      1382         -0.92896306        0.006250
      1383         -0.92896330        0.006250
      1384         -0.92896333        0.006250
      1385         -0.92896806        0.006250
      1386         -0.92896846        0.006250
      1387         -0.92896955        0.006250
      1388         -0.92897105        0.006250
      1389         -0.92897161        0.006250
      1390         -0.92897566        0.006250
      1391         -0.92897750        0.006250
      1392         -0.92898060        0.006250
      1393         -0.92898154        0.006250
      1394         -0.92898264        0.006250
      1395         -0.92898439        0.006250
      1396         -0.92898700        0.006250
      1397         -0.92898986        0.006250
      1398         -0.92899205        0.006250
      1399         -0.92899399        0.006250
      1400         -0.92899415        0.006250
      1401         -0.92899485        0.006250
      1402         -0.92899727        0.006250
      1403         -0.92899773        0.006250
      1404         -0.92899848        0.006250
      1405         -0.92899899        0.006250
      1406         -0.92900125        0.006250
      1407         -0.92900128        0.006250
      1408         -0.92900261        0.006250
      1409         -0.92900269        0.006250
      1410         -0.92900316        0.006250
      1411         -0.92900461        0.006250
      1412         -0.92900484        0.006250
      1413         -0.92900581        0.006250
      1414         -0.92900721        0.006250
      1415         -0.92900995        0.006250
      1416         -0.92901373        0.006250
      1417         -0.92901497        0.006250
      1418         -0.92901502        0.006250
      1419         -0.92901504        0.006250
      1420         -0.92901606        0.006250
      1421         -0.92901832        0.006250
      1422         -0.92901950        0.006250
      1423         -0.92902048        0.006250
      1424         -0.92902224        0.006250
      1425         -0.92902228        0.005787
      1426         -0.92902599        0.005787
      1427         -0.92902655        0.005787
      1428         -0.92902802        0.005787
      1429         -0.92902840        0.005787
      1430         -0.92902875        0.005787
      1431         -0.92903217        0.005787
      1432         -0.92903366        0.005787
      1433         -0.92903466        0.005787
      1434         -0.92903675        0.005787
      1435         -0.92903697        0.005787
      1436         -0.92903709        0.005787
      1437         -0.92903720        0.005787
      1438         -0.92903852        0.005787
      1439         -0.92903894        0.005787
      1440         -0.92904033        0.005787
      1441         -0.92904061        0.005787
      1442         -0.92904385        0.005787
      1443         -0.92904410        0.005787
      1444         -0.92904439        0.005787
      1445         -0.92904461        0.005787
      1446         -0.92904533        0.005787
      1447         -0.92904626        0.005787
      1448         -0.92904656        0.005787
      1449         -0.92904906        0.005787
      1450         -0.92905107        0.005787
      1451         -0.92905229        0.005787
      1452         -0.92905334        0.005787
      1453         -0.92905348        0.005787
      1454         -0.92905631        0.005787
      1455         -0.92905682        0.005787
      1456         -0.92905888        0.005787
      1457         -0.92906025        0.005787
      1458         -0.92906133        0.005787
      1459         -0.92906458        0.005787
      1460         -0.92906503        0.005787
      1461         -0.92906601        0.005787
      1462         -0.92906783        0.005787
      1463         -0.92906867        0.005787
      1464         -0.92907072        0.005787
      1465         -0.92907128        0.005787
      1466         -0.92907210        0.005787
      1467         -0.92907624        0.005787
      1468         -0.92907696        0.005787
      1469         -0.92907996        0.005787
      1470         -0.92908215        0.005787
      1471         -0.92908348        0.005787
      1472         -0.92908458        0.005787
      1473         -0.92908506        0.005787
      1474         -0.92908549        0.005787
      1475         -0.92908622        0.005787
      1476         -0.92908770        0.005787
      1477         -0.92908785        0.005787
      1478         -0.92909010        0.005787
      1479         -0.92909097        0.005787
      1480         -0.92909121        0.005787
      1481         -0.92909172        0.005787
      1482         -0.92909206        0.005787
      1483         -0.92909545        0.005787
      1484         -0.92909736        0.005787
      1485         -0.92909788        0.005787
      1486         -0.92909804        0.005787
      1487         -0.92909866        0.005787
      1488         -0.92909944        0.005787
      1489         -0.92910179        0.005787
      1490         -0.92910260        0.005787
      1491         -0.92910314        0.005787
      1492         -0.92910421        0.005787
      1493         -0.92910561        0.005787
      1494         -0.92910566        0.005787
      1495         -0.92910722        0.005787
      1496         -0.92910893        0.005787
      1497         -0.92910893        0.005787
      1498         -0.92910980        0.005787
      1499         -0.92911062        0.005787
      1500         -0.92911065        0.005787
      1501         -0.92911202        0.005787
      1502         -0.92911403        0.005787
      1503         -0.92911611        0.005787
      1504         -0.92911802        0.005787
      1505         -0.92911850        0.005787
      1506         -0.92911931        0.005787
      1507         -0.92911987        0.005787
      1508         -0.92912128        0.005358
      1509         -0.92912228        0.005358
      1510         -0.92912287        0.005358
      1511         -0.92912290        0.005358
      1512         -0.92912342        0.005358
      1513         -0.92912420        0.005358
      1514         -0.92912531        0.005358
      1515         -0.92912546        0.005358
      1516         -0.92912578        0.005358
      1517         -0.92912649        0.005358
      1518         -0.92912709        0.005358
      1519         -0.92912775        0.005358
      1520         -0.92912825        0.005358
      1521         -0.92912958        0.005358
      1522         -0.92913077        0.005358
      1523         -0.92913123        0.005358
      1524         -0.92913301        0.005358
      1525         -0.92913541        0.005358
      1526         -0.92913728        0.005358
      1527         -0.92913756        0.005358
      1528         -0.92913910        0.005358
      1529         -0.92914075        0.005358
      1530         -0.92914116        0.005358
      1531         -0.92914163        0.005358
      1532         -0.92914279        0.005358
      1533         -0.92914330        0.005358
      1534         -0.92914490        0.005358
      1535         -0.92914500        0.005358
      1536         -0.92914580        0.005358
      1537         -0.92914735        0.005358
      1538         -0.92914879        0.005358
      1539         -0.92914931        0.005358
      1540         -0.92915026        0.005358
      1541         -0.92915160        0.005358
      1542         -0.92915304        0.005358
      1543         -0.92915404        0.005358
      1544         -0.92915564        0.005358
      1545         -0.92915577        0.005358
      1546         -0.92915842        0.005358
      1547         -0.92915849        0.005358
      1548         -0.92915975        0.005358
      1549         -0.92916107        0.004961
      1550         -0.92916242        0.004961
      1551         -0.92916393        0.004961
[...]
   9      -0.00000     0.00000     0.00000    -0.00000
  10      -0.00000     0.00000     0.00000    -0.00000

                  WFN1 Final alpha Correlation Function Analysis
                  ----------------------------------------------


 global array: Ca[1:10,1:10],  handle: -981 

                     1                       2                       3                       4                       5                       6  
       ----------------------- ----------------------- ----------------------- ----------------------- ----------------------- -----------------------
   1      -0.72308,    0.60879     0.20624,   -0.23929    -0.03409,   -0.04205     0.00734,   -0.01451     0.02936,   -0.01150     0.00524,    0.01167
   2      -0.28071,   -0.13998    -0.89766,   -0.27429    -0.05710,   -0.03073     0.03093,   -0.01116     0.01504,    0.05799     0.02743,   -0.06719
   3      -0.04965,   -0.00020    -0.01051,   -0.03146    -0.01059,    0.72967    -0.00521,    0.67508    -0.02819,   -0.02939     0.00221,    0.00191
   4       0.03529,   -0.02023     0.05376,    0.02425    -0.64424,   -0.17204     0.70882,    0.18542     0.05350,    0.00151    -0.05819,   -0.00240
   5       0.00475,   -0.02520     0.00212,    0.02222     0.05026,    0.04080     0.02618,   -0.01092     0.47168,   -0.05275     0.39814,   -0.00157
   6       0.01687,    0.02010     0.03527,    0.00076    -0.01490,   -0.03250    -0.02496,    0.00617     0.19653,    0.40377     0.14597,    0.32035
   7      -0.01395,   -0.02219    -0.01112,   -0.03410    -0.02204,    0.00762     0.00063,   -0.00460    -0.36436,   -0.10980    -0.36655,   -0.07631
   8      -0.01091,   -0.02303     0.00948,   -0.01733     0.03137,   -0.00000    -0.03548,    0.04102     0.26909,   -0.30642    -0.28452,    0.33040
   9      -0.00942,   -0.02518    -0.09436,   -0.03754     0.04998,   -0.07822    -0.01771,    0.02364     0.21758,   -0.37513    -0.22449,    0.46740
  10       0.01352,   -0.02061    -0.02680,    0.01181     0.00469,    0.00790     0.00776,   -0.02686    -0.10854,   -0.23024     0.03023,    0.32961

                     7                       8                       9                      10  
       ----------------------- ----------------------- ----------------------- -----------------------
   1       0.00601,   -0.00748     0.01754,    0.03977     0.00801,    0.00891    -0.00810,   -0.01359
   2      -0.02892,    0.01501    -0.00595,   -0.00529     0.02514,   -0.06706    -0.01058,    0.00804
   3      -0.01520,   -0.03515    -0.00707,   -0.02754    -0.00502,   -0.00660     0.02392,   -0.05967
   4      -0.02470,   -0.02902     0.05984,   -0.02081    -0.01560,   -0.01838     0.03221,    0.00891
   5       0.51706,   -0.11004     0.48639,   -0.06508     0.27757,   -0.08695     0.02457,    0.06768
   6       0.00669,   -0.01409    -0.20678,   -0.30265    -0.21684,   -0.51159    -0.17397,   -0.44377
   7       0.54487,    0.08995     0.24705,   -0.00832    -0.24766,   -0.10119    -0.51374,   -0.10434
   8      -0.35863,    0.27920     0.15745,   -0.18626     0.20854,   -0.26924    -0.34628,    0.36970
   9       0.04937,   -0.06784     0.11238,   -0.14503    -0.23859,    0.44322     0.22878,   -0.41969
  10      -0.06295,   -0.44008     0.06401,    0.67802    -0.03847,   -0.39791     0.03496,   -0.02916

                   WFN1 Final beta Correlation Function Analysis
                   ---------------------------------------------


 global array: Cb[1:10,1:10],  handle: -980 

                     1                       2                       3                       4                       5                       6  
       ----------------------- ----------------------- ----------------------- ----------------------- ----------------------- -----------------------
   1      -0.72308,    0.60879     0.20624,   -0.23929    -0.03409,   -0.04205     0.00734,   -0.01451     0.02936,   -0.01150     0.00524,    0.01167
   2      -0.28071,   -0.13998    -0.89766,   -0.27429    -0.05710,   -0.03073     0.03093,   -0.01116     0.01504,    0.05799     0.02743,   -0.06719
   3      -0.04965,   -0.00020    -0.01051,   -0.03146    -0.01059,    0.72967    -0.00521,    0.67508    -0.02819,   -0.02939     0.00221,    0.00191
   4       0.03529,   -0.02023     0.05376,    0.02425    -0.64424,   -0.17204     0.70882,    0.18542     0.05350,    0.00151    -0.05819,   -0.00240
   5       0.00475,   -0.02520     0.00212,    0.02222     0.05026,    0.04080     0.02618,   -0.01092     0.47168,   -0.05275     0.39814,   -0.00157
   6       0.01687,    0.02010     0.03527,    0.00076    -0.01490,   -0.03250    -0.02496,    0.00617     0.19653,    0.40377     0.14597,    0.32035
   7      -0.01395,   -0.02219    -0.01112,   -0.03410    -0.02204,    0.00762     0.00063,   -0.00460    -0.36436,   -0.10980    -0.36655,   -0.07631
   8      -0.01091,   -0.02303     0.00948,   -0.01733     0.03137,   -0.00000    -0.03548,    0.04102     0.26909,   -0.30642    -0.28452,    0.33040
   9      -0.00942,   -0.02518    -0.09436,   -0.03754     0.04998,   -0.07822    -0.01771,    0.02364     0.21758,   -0.37513    -0.22449,    0.46740
  10       0.01352,   -0.02061    -0.02680,    0.01181     0.00469,    0.00790     0.00776,   -0.02686    -0.10854,   -0.23024     0.03023,    0.32961

                     7                       8                       9                      10  
       ----------------------- ----------------------- ----------------------- -----------------------
   1       0.00601,   -0.00748     0.01754,    0.03977     0.00801,    0.00891    -0.00810,   -0.01359
   2      -0.02892,    0.01501    -0.00595,   -0.00529     0.02514,   -0.06706    -0.01058,    0.00804
   3      -0.01520,   -0.03515    -0.00707,   -0.02754    -0.00502,   -0.00660     0.02392,   -0.05967
   4      -0.02470,   -0.02902     0.05984,   -0.02081    -0.01560,   -0.01838     0.03221,    0.00891
   5       0.51706,   -0.11004     0.48639,   -0.06508     0.27757,   -0.08695     0.02457,    0.06768
   6       0.00669,   -0.01409    -0.20678,   -0.30265    -0.21684,   -0.51159    -0.17397,   -0.44377
   7       0.54487,    0.08995     0.24705,   -0.00832    -0.24766,   -0.10119    -0.51374,   -0.10434
   8      -0.35863,    0.27920     0.15745,   -0.18626     0.20854,   -0.26924    -0.34628,    0.36970
   9       0.04937,   -0.06784     0.11238,   -0.14503    -0.23859,    0.44322     0.22878,   -0.41969
  10      -0.06295,   -0.44008     0.06401,    0.67802    -0.03847,   -0.39791     0.03496,   -0.02916

                     WFN1 Final Alpha Natural Orbital Analysis
                     -----------------------------------------

 Vector    1  Occ=8.934753D-01  E= 0.000000D+00
              MO Center= -1.9D-06,  4.2D-06, -1.9D-04, r^2= 1.8D+00
   Bfn.  Coefficient  Atom+Function         Bfn.  Coefficient  Atom+Function  
  ----- ------------  ---------------      ----- ------------  ---------------
     2     -0.473794  1 H  s                  7     -0.473577  2 H  s          
     1     -0.223491  1 H  s                  6     -0.223567  2 H  s          

 Vector    2  Occ=9.839244D-02  E= 0.000000D+00
              MO Center=  9.8D-06, -2.4D-05,  1.2D-04, r^2= 2.1D+00
   Bfn.  Coefficient  Atom+Function         Bfn.  Coefficient  Atom+Function  
  ----- ------------  ---------------      ----- ------------  ---------------
     2     -0.549888  1 H  s                  7      0.550515  2 H  s          
     1     -0.308016  1 H  s                  6      0.307311  2 H  s          

 Vector    3  Occ=2.465102D-03  E= 0.000000D+00
              MO Center=  1.2D-05, -1.5D-03,  1.2D-02, r^2= 2.0D+00
   Bfn.  Coefficient  Atom+Function         Bfn.  Coefficient  Atom+Function  
  ----- ------------  ---------------      ----- ------------  ---------------
     1      0.901314  1 H  s                  6      0.901292  2 H  s          
     2     -0.664431  1 H  s                  7     -0.666593  2 H  s          
    10      0.073965  2 H  pz                 5     -0.036446  1 H  pz         

 Vector    4  Occ=1.654480D-03  E= 0.000000D+00
              MO Center= -1.1D-03, -1.5D-03, -8.0D-03, r^2= 2.7D+00
   Bfn.  Coefficient  Atom+Function         Bfn.  Coefficient  Atom+Function  
  ----- ------------  ---------------      ----- ------------  ---------------
     2      0.992725  1 H  s                  7     -0.990847  2 H  s          
     1     -0.905864  1 H  s                  6      0.906432  2 H  s          
     5     -0.077101  1 H  pz                10     -0.030729  2 H  pz         

 Vector    5  Occ=6.575077D-04  E= 0.000000D+00
              MO Center= -1.3D-05, -1.5D-04, -9.5D-03, r^2= 1.4D+00
   Bfn.  Coefficient  Atom+Function         Bfn.  Coefficient  Atom+Function  
  ----- ------------  ---------------      ----- ------------  ---------------
     5      0.711951  1 H  pz                10     -0.696687  2 H  pz         
     7     -0.152439  2 H  s                  6      0.141179  2 H  s          
     2     -0.084094  1 H  s                  1      0.079894  1 H  s          
     9     -0.033758  2 H  py                 4      0.031334  1 H  py         

 Vector    6  Occ=6.884255D-04  E= 0.000000D+00
              MO Center= -4.9D-04,  1.5D-03, -6.8D-04, r^2= 1.4D+00
   Bfn.  Coefficient  Atom+Function         Bfn.  Coefficient  Atom+Function  
  ----- ------------  ---------------      ----- ------------  ---------------
     4     -0.677511  1 H  py                 9     -0.633265  2 H  py         
     8      0.313882  2 H  px                 3      0.202376  1 H  px         

 Vector    7  Occ=6.868128D-04  E= 0.000000D+00
              MO Center=  5.9D-04,  2.7D-04,  7.2D-04, r^2= 1.4D+00
   Bfn.  Coefficient  Atom+Function         Bfn.  Coefficient  Atom+Function  
  ----- ------------  ---------------      ----- ------------  ---------------
     8      0.663363  2 H  px                 3      0.651680  1 H  px         
     4      0.272725  1 H  py                 9      0.245060  2 H  py         

 Vector    8  Occ=6.495267D-04  E= 0.000000D+00
              MO Center=  1.7D-03,  4.3D-04, -6.6D-04, r^2= 1.4D+00
   Bfn.  Coefficient  Atom+Function         Bfn.  Coefficient  Atom+Function  
  ----- ------------  ---------------      ----- ------------  ---------------
     3      0.677698  1 H  px                 8     -0.633157  2 H  px         
     9     -0.313877  2 H  py                 4      0.202160  1 H  py         

 Vector    9  Occ=7.228843D-04  E= 0.000000D+00
              MO Center= -4.6D-04,  1.1D-03,  6.0D-04, r^2= 1.4D+00
   Bfn.  Coefficient  Atom+Function         Bfn.  Coefficient  Atom+Function  
  ----- ------------  ---------------      ----- ------------  ---------------
     9     -0.662707  2 H  py                 4      0.651299  1 H  py         
     3     -0.273452  1 H  px                 8      0.244872  2 H  px         
    10      0.034021  2 H  pz                 5     -0.029415  1 H  pz         

 Vector   10  Occ=6.074821D-04  E= 0.000000D+00
              MO Center= -2.7D-04, -1.5D-04,  5.3D-03, r^2= 1.4D+00
   Bfn.  Coefficient  Atom+Function         Bfn.  Coefficient  Atom+Function  
  ----- ------------  ---------------      ----- ------------  ---------------
    10      0.717696  2 H  pz                 5      0.702191  1 H  pz         
     2      0.219396  1 H  s                  7     -0.181315  2 H  s          
     1     -0.157620  1 H  s                  6      0.107370  2 H  s          


                     WFN1 Final Beta Natural Orbital Analysis
                     ----------------------------------------

 Vector    1  Occ=8.934753D-01  E= 0.000000D+00
              MO Center= -1.9D-06,  4.2D-06, -1.9D-04, r^2= 1.8D+00
   Bfn.  Coefficient  Atom+Function         Bfn.  Coefficient  Atom+Function  
  ----- ------------  ---------------      ----- ------------  ---------------
     2     -0.473794  1 H  s                  7     -0.473577  2 H  s          
     1     -0.223491  1 H  s                  6     -0.223567  2 H  s          

 Vector    2  Occ=9.839244D-02  E= 0.000000D+00
              MO Center=  9.8D-06, -2.4D-05,  1.2D-04, r^2= 2.1D+00
   Bfn.  Coefficient  Atom+Function         Bfn.  Coefficient  Atom+Function  
  ----- ------------  ---------------      ----- ------------  ---------------
     2     -0.549888  1 H  s                  7      0.550515  2 H  s          
     1     -0.308016  1 H  s                  6      0.307311  2 H  s          

 Vector    3  Occ=2.465102D-03  E= 0.000000D+00
              MO Center=  1.2D-05, -1.5D-03,  1.2D-02, r^2= 2.0D+00
   Bfn.  Coefficient  Atom+Function         Bfn.  Coefficient  Atom+Function  
  ----- ------------  ---------------      ----- ------------  ---------------
     1      0.901314  1 H  s                  6      0.901292  2 H  s          
     2     -0.664431  1 H  s                  7     -0.666593  2 H  s          
    10      0.073965  2 H  pz                 5     -0.036446  1 H  pz         

 Vector    4  Occ=1.654480D-03  E= 0.000000D+00
              MO Center= -1.1D-03, -1.5D-03, -8.0D-03, r^2= 2.7D+00
   Bfn.  Coefficient  Atom+Function         Bfn.  Coefficient  Atom+Function  
  ----- ------------  ---------------      ----- ------------  ---------------
     2      0.992725  1 H  s                  7     -0.990847  2 H  s          
     1     -0.905864  1 H  s                  6      0.906432  2 H  s          
     5     -0.077101  1 H  pz                10     -0.030729  2 H  pz         

 Vector    5  Occ=6.575077D-04  E= 0.000000D+00
              MO Center= -1.3D-05, -1.5D-04, -9.5D-03, r^2= 1.4D+00
   Bfn.  Coefficient  Atom+Function         Bfn.  Coefficient  Atom+Function  
  ----- ------------  ---------------      ----- ------------  ---------------
     5      0.711951  1 H  pz                10     -0.696687  2 H  pz         
     7     -0.152439  2 H  s                  6      0.141179  2 H  s          
     2     -0.084094  1 H  s                  1      0.079894  1 H  s          
     9     -0.033758  2 H  py                 4      0.031334  1 H  py         

 Vector    6  Occ=6.884255D-04  E= 0.000000D+00
              MO Center= -4.9D-04,  1.5D-03, -6.8D-04, r^2= 1.4D+00
   Bfn.  Coefficient  Atom+Function         Bfn.  Coefficient  Atom+Function  
  ----- ------------  ---------------      ----- ------------  ---------------
     4     -0.677511  1 H  py                 9     -0.633265  2 H  py         
     8      0.313882  2 H  px                 3      0.202376  1 H  px         

 Vector    7  Occ=6.868128D-04  E= 0.000000D+00
              MO Center=  5.9D-04,  2.7D-04,  7.2D-04, r^2= 1.4D+00
   Bfn.  Coefficient  Atom+Function         Bfn.  Coefficient  Atom+Function  
  ----- ------------  ---------------      ----- ------------  ---------------
     8      0.663363  2 H  px                 3      0.651680  1 H  px         
     4      0.272725  1 H  py                 9      0.245060  2 H  py         

 Vector    8  Occ=6.495267D-04  E= 0.000000D+00
              MO Center=  1.7D-03,  4.3D-04, -6.6D-04, r^2= 1.4D+00
   Bfn.  Coefficient  Atom+Function         Bfn.  Coefficient  Atom+Function  
  ----- ------------  ---------------      ----- ------------  ---------------
     3      0.677698  1 H  px                 8     -0.633157  2 H  px         
     9     -0.313877  2 H  py                 4      0.202160  1 H  py         

 Vector    9  Occ=7.228843D-04  E= 0.000000D+00
              MO Center= -4.6D-04,  1.1D-03,  6.0D-04, r^2= 1.4D+00
   Bfn.  Coefficient  Atom+Function         Bfn.  Coefficient  Atom+Function  
  ----- ------------  ---------------      ----- ------------  ---------------
     9     -0.662707  2 H  py                 4      0.651299  1 H  py         
     3     -0.273452  1 H  px                 8      0.244872  2 H  px         
    10      0.034021  2 H  pz                 5     -0.029415  1 H  pz         

 Vector   10  Occ=6.074821D-04  E= 0.000000D+00
              MO Center= -2.7D-04, -1.5D-04,  5.3D-03, r^2= 1.4D+00
   Bfn.  Coefficient  Atom+Function         Bfn.  Coefficient  Atom+Function  
  ----- ------------  ---------------      ----- ------------  ---------------
    10      0.717696  2 H  pz                 5      0.702191  1 H  pz         
     2      0.219396  1 H  s                  7     -0.181315  2 H  s          
     1     -0.157620  1 H  s                  6      0.107370  2 H  s          


 Task  times  cpu:     3039.8s     wall:     3549.2s
 Summary of allocated global arrays
-----------------------------------
  No active global arrays



                         GA Statistics for process    0
                         ------------------------------

       create   destroy   get      put      acc     scatter   gather  read&inc
calls:   44       44     1.10e+09 4.72e+05 6.27e+05    0        0       11     
number of processes/call 1.00e+00 1.00e+00 1.00e+00 0.00e+00 0.00e+00
bytes total:             8.80e+11 5.02e+08 6.27e+08 0.00e+00 0.00e+00 8.80e+01
bytes remote:            0.00e+00 0.00e+00 0.00e+00 0.00e+00 0.00e+00 0.00e+00
Max memory consumed for GA by this process: 268000 bytes
MA_summarize_allocated_blocks: starting scan ...
MA_summarize_allocated_blocks: scan completed: 0 heap blocks, 0 stack blocks
MA usage statistics:

	allocation statistics:
					      heap	     stack
					      ----	     -----
	current number of blocks	         0	         0
	maximum number of blocks	        19	        17
	current total bytes		         0	         0
	maximum total bytes		   3205432	  22508664
	maximum total K-bytes		      3206	     22509
	maximum total M-bytes		         4	        23


                                NWChem Input Module
                                -------------------





                                     CITATION
                                     --------
                Please cite the following reference when publishing
                           results obtained with NWChem:

                 M. Valiev, E.J. Bylaska, N. Govind, K. Kowalski,
              T.P. Straatsma, H.J.J. van Dam, D. Wang, J. Nieplocha,
                        E. Apra, T.L. Windus, W.A. de Jong
                 "NWChem: a comprehensive and scalable open-source
                  solution for large scale molecular simulations"
                      Comput. Phys. Commun. 181, 1477 (2010)
                           doi:10.1016/j.cpc.2010.04.018

                                      AUTHORS
                                      -------
          E. Apra, E. J. Bylaska, W. A. de Jong, N. Govind, K. Kowalski,
       T. P. Straatsma, M. Valiev, H. J. J. van Dam, D. Wang, T. L. Windus,
        J. Hammond, J. Autschbach, K. Bhaskaran-Nair, J. Brabec, K. Lopata,
    S. A. Fischer, S. Krishnamoorthy, M. Jacquelin, W. Ma, M. Klemm, O. Villa,
      Y. Chen, V. Anisimov, F. Aquino, S. Hirata, M. T. Hackler, V. Konjkov,
      T. Risthaus, M. Malagoli, A. Marenich, A. Otero-de-la-Roza, J. Mullin,
        P. Nichols, R. Peverati, J. Pittner, Y. Zhao, P.-D. Fan, A. Fonari,
       M. Williamson, R. J. Harrison, J. R. Rehr, M. Dupuis, D. Silverstein,
    D. M. A. Smith, J. Nieplocha, V. Tipparaju, M. Krishnan, B. E. Van Kuiken,
        A. Vazquez-Mayagoitia, L. Jensen, M. Swart, Q. Wu, T. Van Voorhis,
     A. A. Auer, M. Nooijen, L. D. Crosby, E. Brown, G. Cisneros, G. I. Fann,
   H. Fruchtl, J. Garza, K. Hirao, R. A. Kendall, J. A. Nichols, K. Tsemekhman,
    K. Wolinski, J. Anchell, D. E. Bernholdt, P. Borowski, T. Clark, D. Clerc,
   H. Dachsel, M. J. O. Deegan, K. Dyall, D. Elwood, E. Glendening, M. Gutowski,
   A. C. Hess, J. Jaffe, B. G. Johnson, J. Ju, R. Kobayashi, R. Kutteh, Z. Lin,
   R. Littlefield, X. Long, B. Meng, T. Nakajima, S. Niu, L. Pollack, M. Rosing,
   K. Glaesemann, G. Sandrone, M. Stave, H. Taylor, G. Thomas, J. H. van Lenthe,
                               A. T. Wong, Z. Zhang.

 Total times  cpu:     3039.8s     wall:     3549.3s
