 argument  1 = input-wf.nw



============================== echo of input deck ==============================
echo
start wfn1_dat
geometry units au noautoz
  H 0 0 -.79434600000000000000
  H 0 0  .79434600000000000000
  symmetry cs
end
basis
  H library 6-31g**
end
set wfn1:input_vectors "atomic"
set wfn1:solver "monte-carlo"
set wfn1:print_error F
set wfn1:t_initial 0.1
#set wfn1:corr_expr "wfn1_mx"
set wfn1:corr_expr "wfn1c"
set wfn1:t_bath 0.0
set wfn1:maxit  20000
task wfn1 energy
================================================================================


                                         
                                         


              Northwest Computational Chemistry Package (NWChem) 6.8
              ------------------------------------------------------


                    Environmental Molecular Sciences Laboratory
                       Pacific Northwest National Laboratory
                                Richland, WA 99352

                              Copyright (c) 1994-2015
                       Pacific Northwest National Laboratory
                            Battelle Memorial Institute

             NWChem is an open-source computational chemistry package
                        distributed under the terms of the
                      Educational Community License (ECL) 2.0
             A copy of the license is included with this distribution
                              in the LICENSE.TXT file

                                  ACKNOWLEDGMENT
                                  --------------

            This software and its documentation were developed at the
            EMSL at Pacific Northwest National Laboratory, a multiprogram
            national laboratory, operated for the U.S. Department of Energy
            by Battelle under Contract Number DE-AC05-76RL01830. Support
            for this work was provided by the Department of Energy Office
            of Biological and Environmental Research, Office of Basic
            Energy Sciences, and the Office of Advanced Scientific Computing.


           Job information
           ---------------

    hostname        = erato
    program         = ../../../bin/LINUX64/nwchem
    date            = Mon Mar  1 10:07:39 2021

    compiled        = Sun_Feb_28_18:02:42_2021
    source          = /home/hvandam/nwchem-1-wfn1
    nwchem branch   = Development
    nwchem revision = nwchem_on_git-124-gad72d19fff205e319ffbbf2bca37a04ded6ad57b
    ga revision     = nwchem_on_git-124-gad72d19
    use scalapack   = F
    input           = input-wf.nw
    prefix          = wfn1_dat.
    data base       = ./wfn1_dat.db
    status          = startup
    nproc           =        1
    time left       =     -1s



           Memory information
           ------------------

    heap     =   13107198 doubles =    100.0 Mbytes
    stack    =   13107195 doubles =    100.0 Mbytes
    global   =   26214400 doubles =    200.0 Mbytes (distinct from heap & stack)
    total    =   52428793 doubles =    400.0 Mbytes
    verify   = yes
    hardfail = no 


           Directory information
           ---------------------

  0 permanent = .
  0 scratch   = .




                                NWChem Input Module
                                -------------------


 Turning off AUTOSYM since
 SYMMETRY directive was detected!



                             Geometry "geometry" -> ""
                             -------------------------

 Output coordinates in a.u. (scale by  1.000000000 to convert to a.u.)

  No.       Tag          Charge          X              Y              Z
 ---- ---------------- ---------- -------------- -------------- --------------
    1 H                    1.0000     0.00000000     0.00000000    -0.79434600
    2 H                    1.0000     0.00000000     0.00000000     0.79434600

      Atomic Mass 
      ----------- 

      H                  1.007825


 Effective nuclear repulsion energy (a.u.)       0.6294486282

            Nuclear Dipole moment (a.u.) 
            ----------------------------
        X                 Y               Z
 ---------------- ---------------- ----------------
     0.0000000000     0.0000000000     0.0000000000

      Symmetry information
      --------------------

 Group name             Cs        
 Group number              2
 Group order               2
 No. of unique centers     1

      Symmetry unique atoms

     1


            XYZ format geometry
            -------------------
     2
 geometry
 H                     0.00000000     0.00000000    -0.42034983
 H                     0.00000000     0.00000000     0.42034983

                      Basis "ao basis" -> "" (cartesian)
                      -----
  H (Hydrogen)
  ------------
            Exponent  Coefficients 
       -------------- ---------------------------------------------------------
  1 S  1.87311370E+01  0.033495
  1 S  2.82539370E+00  0.234727
  1 S  6.40121700E-01  0.813757

  2 S  1.61277800E-01  1.000000

  3 P  1.10000000E+00  1.000000



 Summary of "ao basis" -> "" (cartesian)
 ------------------------------------------------------------------------------
       Tag                 Description            Shells   Functions and Types
 ---------------- ------------------------------  ------  ---------------------
 H                          6-31g**                  3        5   2s1p



                                NWChem WFN1 Module
                                ------------------



          No. of electrons :     2
           Alpha electrons :     1
            Beta electrons :     1
          Charge           :     0
          Spin multiplicity:     1

 HvD: wfn1_inpdft
 HvD: nquad_task =                     1
 HvD: iangquad   =                     0
 HvD: gridtype   = user      
 HvD: leb        =  T
 HvD: radgrid    = murakn    
 HvD: trunc_neigh=  T
 HvD: lssw       =  T
 HvD: whichssw   = erf1    
 HvD: mxnrad     =                     0
 HvD: mxnang     =                     0
 HVD: wfn1: movecs_in  = atomic                                                                                                                                                                                                                                                          
 HVD: wfn1: movecs_out = ./wfn1_dat.movecs                                                                                                                                                                                                                                               

      Superposition of Atomic Density Guess
      -------------------------------------

 Sum of atomic energies:          -0.99646508

      Non-variational initial energy
      ------------------------------

 Total energy =      -0.835229
 1-e energy   =      -2.122564
 2-e energy   =       0.657886
 HOMO         =      -0.535825
 LUMO         =       0.146473

 iteration              energy           error
 ---------              ------           -----
         0         -1.12371758        0.200000
         1         -1.12394498        0.200000
         2         -1.12429216        0.185175
         3         -1.12435050        0.146973
         4         -1.12447130        0.146973
         5         -1.12452602        0.108006
         6         -1.12461780        0.100000
         7         -1.12478927        0.100000
         8         -1.12486473        0.092587
         9         -1.12493641        0.085724
        10         -1.12501088        0.085724
        11         -1.12508760        0.085724
        12         -1.12519602        0.085724
        13         -1.12525498        0.085724
        14         -1.12529720        0.085724
        15         -1.12543643        0.073487
        16         -1.12545996        0.073487
        17         -1.12553473        0.068040
        18         -1.12555078        0.062996
        19         -1.12555191        0.046294
        20         -1.12555618        0.036743
        21         -1.12558094        0.036743
        22         -1.12558588        0.036743
        23         -1.12563692        0.036743
        24         -1.12564029        0.036743
        25         -1.12565808        0.027001
        26         -1.12573494        0.027001
        27         -1.12573697        0.027001
        28         -1.12574072        0.025000
        29         -1.12575903        0.018372
        30         -1.12581197        0.015749
        31         -1.12582950        0.012500
        32         -1.12584399        0.007291
        33         -1.12584414        0.005787
        34         -1.12584534        0.002296
        35         -1.12585075        0.001823
        36         -1.12585169        0.000984
        37         -1.12585255        0.000723
        38         -1.12585832        0.000532
        39         -1.12586060        0.000362
        40         -1.12586165        0.000362
        41         -1.12586505        0.000211
        42         -1.12586536        0.000181
        43         -1.12586670        0.000033
        44         -1.12586687        0.000026
        45         -1.12586714        0.000005
        46         -1.12586717        0.000005
        47         -1.12586723        0.000004
        48         -1.12586738        0.000004
        49         -1.12586753        0.000003
        50         -1.12586766        0.000001
        51         -1.12586770        0.000001
        52         -1.12586773        0.000001

 Reached Convergence

 WFN1                     :
 --------------------------
 Total WFN1 energy  =          -1.1258677323
 1-Electron energy  =          -2.3749217190
 2-Electron energy  =           0.6226285582
 Correlation energy =          -0.0030231997
 DFT XC energy      =           0.0000000000
 Entropy energy     =           0.0000000000
 Nuclear energy     =           0.6294486282

 conventional Hartree-Fock:
 --------------------------
 Total SCF energy  =          -1.1251502095
 2-Electron energy =           0.6233460810

                WFN1 Final Natural orbital energies and occupations
                ---------------------------------------------------

              Alpha       Beta            Alpha       Beta  
            --------    --------        --------    --------
       1      0.0000      0.0000          0.9991      0.9991
       2      0.0000      0.0000          0.0006      0.0006
       3      0.0000      0.0000          0.0000      0.0000
       4      0.0000      0.0000          0.0001      0.0001
       5      0.0000      0.0000          0.0000      0.0000
       6      0.0000      0.0000          0.0001      0.0001
       7      0.0000      0.0000          0.0000      0.0000
       8      0.0000      0.0000          0.0000      0.0000
       9      0.0000      0.0000          0.0000      0.0000
      10      0.0000      0.0000          0.0000      0.0000

             WFN1 Final Correlation function energies and occupations
             --------------------------------------------------------

              Alpha       Beta            Alpha       Beta  
            --------    --------        --------    --------
       1      0.0000      0.0000          1.0000      1.0000
       2      0.0000      0.0000          0.0000      0.0000
       3      0.0000      0.0000          0.0000      0.0000
       4      0.0000      0.0000          0.0000      0.0000
       5      0.0000      0.0000          0.0000      0.0000
       6      0.0000      0.0000          0.0000      0.0000
       7      0.0000      0.0000          0.0000      0.0000
       8      0.0000      0.0000          0.0000      0.0000
       9      0.0000      0.0000          0.0000      0.0000
      10      0.0000      0.0000          0.0000      0.0000

                WFN1 Final alpha-alpha 2-matrix occupation numbers
                --------------------------------------------------


 global array: g_momo1[1:10,1:10],  handle: -990 

            1           2           3           4           5           6  
       ----------- ----------- ----------- ----------- ----------- -----------
   1      -0.00000     0.00000     0.00000     0.00000     0.00000     0.00000
   2       0.00000     0.00000     0.00000     0.00000     0.00000     0.00000
   3       0.00000     0.00000     0.00000     0.00000     0.00000     0.00000
   4       0.00000     0.00000     0.00000     0.00000     0.00000    -0.00000
   5      -0.00000     0.00000     0.00000     0.00000     0.00000     0.00000
   6       0.00000    -0.00000     0.00000     0.00000     0.00000     0.00000
   7       0.00000     0.00000    -0.00000     0.00000     0.00000     0.00000
   8      -0.00000     0.00000     0.00000     0.00000     0.00000     0.00000
   9       0.00000     0.00000     0.00000     0.00000     0.00000    -0.00000
  10       0.00000     0.00000     0.00000     0.00000     0.00000     0.00000

            7           8           9          10  
       ----------- ----------- ----------- -----------
   1       0.00000     0.00000     0.00000     0.00000
   2       0.00000     0.00000     0.00000     0.00000
   3      -0.00000     0.00000     0.00000     0.00000
   4       0.00000     0.00000     0.00000     0.00000
   5       0.00000     0.00000     0.00000     0.00000
   6       0.00000     0.00000     0.00000     0.00000
   7       0.00000     0.00000     0.00000     0.00000
   8       0.00000     0.00000     0.00000     0.00000
   9       0.00000     0.00000     0.00000     0.00000
  10       0.00000     0.00000     0.00000     0.00000

                 WFN1 Final beta-beta 2-matrix occupation numbers
                 ------------------------------------------------


 global array: g_momo2[1:10,1:10],  handle: -989 

            1           2           3           4           5           6  
       ----------- ----------- ----------- ----------- ----------- -----------
   1      -0.00000     0.00000     0.00000     0.00000     0.00000     0.00000
   2       0.00000     0.00000     0.00000     0.00000     0.00000     0.00000
   3       0.00000     0.00000     0.00000     0.00000     0.00000     0.00000
   4       0.00000     0.00000     0.00000     0.00000     0.00000    -0.00000
   5      -0.00000     0.00000     0.00000     0.00000     0.00000     0.00000
   6       0.00000    -0.00000     0.00000     0.00000     0.00000     0.00000
   7       0.00000     0.00000    -0.00000     0.00000     0.00000     0.00000
   8      -0.00000     0.00000     0.00000     0.00000     0.00000     0.00000
   9       0.00000     0.00000     0.00000     0.00000     0.00000    -0.00000
  10       0.00000     0.00000     0.00000     0.00000     0.00000     0.00000

            7           8           9          10  
       ----------- ----------- ----------- -----------
   1       0.00000     0.00000     0.00000     0.00000
   2       0.00000     0.00000     0.00000     0.00000
   3      -0.00000     0.00000     0.00000     0.00000
   4       0.00000     0.00000     0.00000     0.00000
   5       0.00000     0.00000     0.00000     0.00000
   6       0.00000     0.00000     0.00000     0.00000
   7       0.00000     0.00000     0.00000     0.00000
   8       0.00000     0.00000     0.00000     0.00000
   9       0.00000     0.00000     0.00000     0.00000
  10       0.00000     0.00000     0.00000     0.00000

                  WFN1 Final alpha Correlation Function Analysis
                  ----------------------------------------------


 global array: Ca[1:10,1:10],  handle: -981 

                     1                       2                       3                       4                       5                       6  
       ----------------------- ----------------------- ----------------------- ----------------------- ----------------------- -----------------------
   1      -0.38771,   -0.92131     0.00305,    0.02442    -0.00197,    0.00332     0.00460,    0.00875     0.00376,    0.00492    -0.00382,   -0.00493
   2       0.01454,   -0.01964     0.78943,   -0.61011    -0.03693,    0.02954    -0.00908,   -0.00905     0.00430,   -0.00846     0.00716,    0.00040
   3       0.00413,    0.00044     0.01677,    0.04342     0.39972,    0.90275    -0.05676,   -0.13816     0.00882,    0.00485     0.00298,    0.00750
   4      -0.00136,   -0.00974    -0.01348,   -0.00641    -0.02101,   -0.14778    -0.12246,   -0.97930     0.00585,    0.04359    -0.00469,   -0.00377
   5      -0.00000,    0.00000     0.01046,   -0.00460     0.00823,    0.00015    -0.02383,    0.01636    -0.61485,    0.34600    -0.61559,    0.34656
   6       0.00739,   -0.00515    -0.00700,   -0.00369     0.00025,   -0.00554     0.02432,   -0.02189     0.48213,   -0.51174    -0.48344,    0.51404
   7       0.00312,   -0.00476     0.00223,   -0.00324    -0.01428,    0.00180    -0.00844,   -0.01108    -0.06194,   -0.01181     0.03607,    0.02175
   8      -0.00016,    0.00016    -0.00847,    0.02208     0.00622,    0.00441    -0.01783,   -0.00270     0.00489,    0.02245     0.01169,    0.01577
   9      -0.00562,   -0.00176    -0.00852,   -0.02045     0.00064,    0.00961    -0.01814,   -0.01223    -0.02148,   -0.01825    -0.00477,   -0.00424
  10       0.00252,   -0.00247    -0.01563,   -0.00795    -0.01065,    0.01252    -0.02230,    0.00084    -0.00462,    0.02056    -0.01875,   -0.01543

                     7                       8                       9                      10  
       ----------------------- ----------------------- ----------------------- -----------------------
   1       0.00388,   -0.00234    -0.00300,    0.00419     0.00115,   -0.00320     0.00319,   -0.00265
   2       0.00419,    0.01057    -0.00221,    0.02391     0.02007,    0.00194    -0.01386,    0.01081
   3       0.00327,   -0.01264    -0.00085,    0.00300    -0.00859,   -0.01147     0.01292,   -0.00681
   4       0.00685,    0.00982    -0.00423,   -0.00180     0.00587,   -0.02503    -0.01060,    0.02159
   5       0.02395,   -0.00186     0.01745,   -0.02424    -0.01091,   -0.01574     0.01716,    0.00345
   6      -0.05606,    0.04760     0.01072,   -0.00523     0.01491,   -0.00608     0.00099,   -0.02562
   7      -0.85698,   -0.42754     0.23927,    0.13551     0.02278,   -0.00957    -0.01879,   -0.00339
   8       0.18554,    0.08510     0.61277,    0.27022     0.64887,    0.29442     0.00380,   -0.01567
   9      -0.11718,   -0.14301    -0.36539,   -0.58331     0.37241,    0.59227    -0.02416,   -0.00747
  10       0.01291,    0.01803    -0.00425,    0.02066    -0.01447,   -0.00882    -0.85716,   -0.51179

                   WFN1 Final beta Correlation Function Analysis
                   ---------------------------------------------


 global array: Cb[1:10,1:10],  handle: -980 

                     1                       2                       3                       4                       5                       6  
       ----------------------- ----------------------- ----------------------- ----------------------- ----------------------- -----------------------
   1      -0.38771,   -0.92131     0.00305,    0.02442    -0.00197,    0.00332     0.00460,    0.00875     0.00376,    0.00492    -0.00382,   -0.00493
   2       0.01454,   -0.01964     0.78943,   -0.61011    -0.03693,    0.02954    -0.00908,   -0.00905     0.00430,   -0.00846     0.00716,    0.00040
   3       0.00413,    0.00044     0.01677,    0.04342     0.39972,    0.90275    -0.05676,   -0.13816     0.00882,    0.00485     0.00298,    0.00750
   4      -0.00136,   -0.00974    -0.01348,   -0.00641    -0.02101,   -0.14778    -0.12246,   -0.97930     0.00585,    0.04359    -0.00469,   -0.00377
   5      -0.00000,    0.00000     0.01046,   -0.00460     0.00823,    0.00015    -0.02383,    0.01636    -0.61485,    0.34600    -0.61559,    0.34656
   6       0.00739,   -0.00515    -0.00700,   -0.00369     0.00025,   -0.00554     0.02432,   -0.02189     0.48213,   -0.51174    -0.48344,    0.51404
   7       0.00312,   -0.00476     0.00223,   -0.00324    -0.01428,    0.00180    -0.00844,   -0.01108    -0.06194,   -0.01181     0.03607,    0.02175
   8      -0.00016,    0.00016    -0.00847,    0.02208     0.00622,    0.00441    -0.01783,   -0.00270     0.00489,    0.02245     0.01169,    0.01577
   9      -0.00562,   -0.00176    -0.00852,   -0.02045     0.00064,    0.00961    -0.01814,   -0.01223    -0.02148,   -0.01825    -0.00477,   -0.00424
  10       0.00252,   -0.00247    -0.01563,   -0.00795    -0.01065,    0.01252    -0.02230,    0.00084    -0.00462,    0.02056    -0.01875,   -0.01543

                     7                       8                       9                      10  
       ----------------------- ----------------------- ----------------------- -----------------------
   1       0.00388,   -0.00234    -0.00300,    0.00419     0.00115,   -0.00320     0.00319,   -0.00265
   2       0.00419,    0.01057    -0.00221,    0.02391     0.02007,    0.00194    -0.01386,    0.01081
   3       0.00327,   -0.01264    -0.00085,    0.00300    -0.00859,   -0.01147     0.01292,   -0.00681
   4       0.00685,    0.00982    -0.00423,   -0.00180     0.00587,   -0.02503    -0.01060,    0.02159
   5       0.02395,   -0.00186     0.01745,   -0.02424    -0.01091,   -0.01574     0.01716,    0.00345
   6      -0.05606,    0.04760     0.01072,   -0.00523     0.01491,   -0.00608     0.00099,   -0.02562
   7      -0.85698,   -0.42754     0.23927,    0.13551     0.02278,   -0.00957    -0.01879,   -0.00339
   8       0.18554,    0.08510     0.61277,    0.27022     0.64887,    0.29442     0.00380,   -0.01567
   9      -0.11718,   -0.14301    -0.36539,   -0.58331     0.37241,    0.59227    -0.02416,   -0.00747
  10       0.01291,    0.01803    -0.00425,    0.02066    -0.01447,   -0.00882    -0.85716,   -0.51179

                     WFN1 Final Alpha Natural Orbital Analysis
                     -----------------------------------------

 Vector    1  Occ=9.991285D-01  E= 0.000000D+00
              MO Center=  5.9D-04,  2.9D-04, -7.7D-04, r^2= 7.9D-01
   Bfn.  Coefficient  Atom+Function         Bfn.  Coefficient  Atom+Function  
  ----- ------------  ---------------      ----- ------------  ---------------
     1      0.305822  1 H  s                  6      0.303804  2 H  s          
     2      0.299186  1 H  s                  7      0.295986  2 H  s          

 Vector    2  Occ=5.969115D-04  E= 0.000000D+00
              MO Center= -4.4D-03, -3.6D-03,  1.9D-02, r^2= 1.9D+00
   Bfn.  Coefficient  Atom+Function         Bfn.  Coefficient  Atom+Function  
  ----- ------------  ---------------      ----- ------------  ---------------
     7      1.412558  2 H  s                  2     -1.377497  1 H  s          
     1     -0.216482  1 H  s                  6      0.174855  2 H  s          
     5      0.027910  1 H  pz         

 Vector    3  Occ=1.725540D-05  E= 0.000000D+00
              MO Center= -3.9D-04,  2.4D-04, -2.2D-02, r^2= 1.5D+00
   Bfn.  Coefficient  Atom+Function         Bfn.  Coefficient  Atom+Function  
  ----- ------------  ---------------      ----- ------------  ---------------
     1     -0.785710  1 H  s                  6     -0.772239  2 H  s          
     2      0.709804  1 H  s                  7      0.650329  2 H  s          
     5     -0.071875  1 H  pz                10      0.037067  2 H  pz         

 Vector    4  Occ=9.677910D-05  E= 0.000000D+00
              MO Center=  1.7D-03,  3.6D-03,  9.9D-03, r^2= 1.4D+00
   Bfn.  Coefficient  Atom+Function         Bfn.  Coefficient  Atom+Function  
  ----- ------------  ---------------      ----- ------------  ---------------
     2      1.421129  1 H  s                  7     -1.426578  2 H  s          
     6      0.943411  2 H  s                  1     -0.932888  1 H  s          
    10      0.179681  2 H  pz                 5      0.162834  1 H  pz         

 Vector    5  Occ=1.060770D-18  E= 0.000000D+00
              MO Center= -5.2D-05, -6.1D-04, -4.4D-03, r^2= 4.6D-01
   Bfn.  Coefficient  Atom+Function         Bfn.  Coefficient  Atom+Function  
  ----- ------------  ---------------      ----- ------------  ---------------
     4      0.635078  1 H  py                 9      0.626797  2 H  py         
     3      0.046455  1 H  px                 8      0.039589  2 H  px         
     7      0.027081  2 H  s          

 Vector    6  Occ=8.108333D-05  E= 0.000000D+00
              MO Center= -3.8D-04, -1.2D-05, -3.2D-03, r^2= 4.6D-01
   Bfn.  Coefficient  Atom+Function         Bfn.  Coefficient  Atom+Function  
  ----- ------------  ---------------      ----- ------------  ---------------
     3      0.633038  1 H  px                 8      0.628780  2 H  px         
     4     -0.051764  1 H  py                 9     -0.034378  2 H  py         

 Vector    7  Occ=3.234271D-05  E= 0.000000D+00
              MO Center=  8.1D-05,  6.1D-05, -1.2D-03, r^2= 5.8D-01
   Bfn.  Coefficient  Atom+Function         Bfn.  Coefficient  Atom+Function  
  ----- ------------  ---------------      ----- ------------  ---------------
    10      0.624430  2 H  pz                 5     -0.616011  1 H  pz         
     1      0.380530  1 H  s                  6      0.349779  2 H  s          
     2     -0.201717  1 H  s                  7     -0.145944  2 H  s          

 Vector    8  Occ=4.953418D-08  E= 0.000000D+00
              MO Center=  1.7D-03,  1.6D-03,  7.4D-04, r^2= 5.5D-01
   Bfn.  Coefficient  Atom+Function         Bfn.  Coefficient  Atom+Function  
  ----- ------------  ---------------      ----- ------------  ---------------
     3     -0.595610  1 H  px                 8      0.589279  2 H  px         
     9      0.565460  2 H  py                 4     -0.556811  1 H  py         
     2     -0.041192  1 H  s                  7      0.033343  2 H  s          

 Vector    9  Occ=3.467451D-05  E= 0.000000D+00
              MO Center=  1.6D-04, -1.6D-04,  6.7D-03, r^2= 5.5D-01
   Bfn.  Coefficient  Atom+Function         Bfn.  Coefficient  Atom+Function  
  ----- ------------  ---------------      ----- ------------  ---------------
     4     -0.591523  1 H  py                 9      0.593369  2 H  py         
     8     -0.567165  2 H  px                 3      0.555157  1 H  px         

 Vector   10  Occ=1.244316D-05  E= 0.000000D+00
              MO Center=  9.5D-04, -1.4D-03, -5.3D-03, r^2= 6.0D-01
   Bfn.  Coefficient  Atom+Function         Bfn.  Coefficient  Atom+Function  
  ----- ------------  ---------------      ----- ------------  ---------------
     5      1.329166  1 H  pz                10      1.324663  2 H  pz         
     6     -0.876919  2 H  s                  1      0.852748  1 H  s          
     2      0.300140  1 H  s                  7     -0.281772  2 H  s          


                     WFN1 Final Beta Natural Orbital Analysis
                     ----------------------------------------

 Vector    1  Occ=9.991285D-01  E= 0.000000D+00
              MO Center=  5.9D-04,  2.9D-04, -7.7D-04, r^2= 7.9D-01
   Bfn.  Coefficient  Atom+Function         Bfn.  Coefficient  Atom+Function  
  ----- ------------  ---------------      ----- ------------  ---------------
     1      0.305822  1 H  s                  6      0.303804  2 H  s          
     2      0.299186  1 H  s                  7      0.295986  2 H  s          

 Vector    2  Occ=5.969115D-04  E= 0.000000D+00
              MO Center= -4.4D-03, -3.6D-03,  1.9D-02, r^2= 1.9D+00
   Bfn.  Coefficient  Atom+Function         Bfn.  Coefficient  Atom+Function  
  ----- ------------  ---------------      ----- ------------  ---------------
     7      1.412558  2 H  s                  2     -1.377497  1 H  s          
     1     -0.216482  1 H  s                  6      0.174855  2 H  s          
     5      0.027910  1 H  pz         

 Vector    3  Occ=1.725540D-05  E= 0.000000D+00
              MO Center= -3.9D-04,  2.4D-04, -2.2D-02, r^2= 1.5D+00
   Bfn.  Coefficient  Atom+Function         Bfn.  Coefficient  Atom+Function  
  ----- ------------  ---------------      ----- ------------  ---------------
     1     -0.785710  1 H  s                  6     -0.772239  2 H  s          
     2      0.709804  1 H  s                  7      0.650329  2 H  s          
     5     -0.071875  1 H  pz                10      0.037067  2 H  pz         

 Vector    4  Occ=9.677910D-05  E= 0.000000D+00
              MO Center=  1.7D-03,  3.6D-03,  9.9D-03, r^2= 1.4D+00
   Bfn.  Coefficient  Atom+Function         Bfn.  Coefficient  Atom+Function  
  ----- ------------  ---------------      ----- ------------  ---------------
     2      1.421129  1 H  s                  7     -1.426578  2 H  s          
     6      0.943411  2 H  s                  1     -0.932888  1 H  s          
    10      0.179681  2 H  pz                 5      0.162834  1 H  pz         

 Vector    5  Occ=1.060770D-18  E= 0.000000D+00
              MO Center= -5.2D-05, -6.1D-04, -4.4D-03, r^2= 4.6D-01
   Bfn.  Coefficient  Atom+Function         Bfn.  Coefficient  Atom+Function  
  ----- ------------  ---------------      ----- ------------  ---------------
     4      0.635078  1 H  py                 9      0.626797  2 H  py         
     3      0.046455  1 H  px                 8      0.039589  2 H  px         
     7      0.027081  2 H  s          

 Vector    6  Occ=8.108333D-05  E= 0.000000D+00
              MO Center= -3.8D-04, -1.2D-05, -3.2D-03, r^2= 4.6D-01
   Bfn.  Coefficient  Atom+Function         Bfn.  Coefficient  Atom+Function  
  ----- ------------  ---------------      ----- ------------  ---------------
     3      0.633038  1 H  px                 8      0.628780  2 H  px         
     4     -0.051764  1 H  py                 9     -0.034378  2 H  py         

 Vector    7  Occ=3.234271D-05  E= 0.000000D+00
              MO Center=  8.1D-05,  6.1D-05, -1.2D-03, r^2= 5.8D-01
   Bfn.  Coefficient  Atom+Function         Bfn.  Coefficient  Atom+Function  
  ----- ------------  ---------------      ----- ------------  ---------------
    10      0.624430  2 H  pz                 5     -0.616011  1 H  pz         
     1      0.380530  1 H  s                  6      0.349779  2 H  s          
     2     -0.201717  1 H  s                  7     -0.145944  2 H  s          

 Vector    8  Occ=4.953418D-08  E= 0.000000D+00
              MO Center=  1.7D-03,  1.6D-03,  7.4D-04, r^2= 5.5D-01
   Bfn.  Coefficient  Atom+Function         Bfn.  Coefficient  Atom+Function  
  ----- ------------  ---------------      ----- ------------  ---------------
     3     -0.595610  1 H  px                 8      0.589279  2 H  px         
     9      0.565460  2 H  py                 4     -0.556811  1 H  py         
     2     -0.041192  1 H  s                  7      0.033343  2 H  s          

 Vector    9  Occ=3.467451D-05  E= 0.000000D+00
              MO Center=  1.6D-04, -1.6D-04,  6.7D-03, r^2= 5.5D-01
   Bfn.  Coefficient  Atom+Function         Bfn.  Coefficient  Atom+Function  
  ----- ------------  ---------------      ----- ------------  ---------------
     4     -0.591523  1 H  py                 9      0.593369  2 H  py         
     8     -0.567165  2 H  px                 3      0.555157  1 H  px         

 Vector   10  Occ=1.244316D-05  E= 0.000000D+00
              MO Center=  9.5D-04, -1.4D-03, -5.3D-03, r^2= 6.0D-01
   Bfn.  Coefficient  Atom+Function         Bfn.  Coefficient  Atom+Function  
  ----- ------------  ---------------      ----- ------------  ---------------
     5      1.329166  1 H  pz                10      1.324663  2 H  pz         
     6     -0.876919  2 H  s                  1      0.852748  1 H  s          
     2      0.300140  1 H  s                  7     -0.281772  2 H  s          


 Task  times  cpu:      200.5s     wall:      261.8s
 Summary of allocated global arrays
-----------------------------------
  No active global arrays



                         GA Statistics for process    0
                         ------------------------------

       create   destroy   get      put      acc     scatter   gather  read&inc
calls:   44       44     5.48e+07 2.51e+04 3.14e+04    0        0       11     
number of processes/call 1.00e+00 1.00e+00 1.00e+00 0.00e+00 0.00e+00
bytes total:             4.39e+10 2.51e+07 3.13e+07 0.00e+00 0.00e+00 8.80e+01
bytes remote:            0.00e+00 0.00e+00 0.00e+00 0.00e+00 0.00e+00 0.00e+00
Max memory consumed for GA by this process: 268000 bytes
MA_summarize_allocated_blocks: starting scan ...
MA_summarize_allocated_blocks: scan completed: 0 heap blocks, 0 stack blocks
MA usage statistics:

	allocation statistics:
					      heap	     stack
					      ----	     -----
	current number of blocks	         0	         0
	maximum number of blocks	        19	        17
	current total bytes		         0	         0
	maximum total bytes		   3205432	  22508664
	maximum total K-bytes		      3206	     22509
	maximum total M-bytes		         4	        23


                                NWChem Input Module
                                -------------------





                                     CITATION
                                     --------
                Please cite the following reference when publishing
                           results obtained with NWChem:

                 M. Valiev, E.J. Bylaska, N. Govind, K. Kowalski,
              T.P. Straatsma, H.J.J. van Dam, D. Wang, J. Nieplocha,
                        E. Apra, T.L. Windus, W.A. de Jong
                 "NWChem: a comprehensive and scalable open-source
                  solution for large scale molecular simulations"
                      Comput. Phys. Commun. 181, 1477 (2010)
                           doi:10.1016/j.cpc.2010.04.018

                                      AUTHORS
                                      -------
          E. Apra, E. J. Bylaska, W. A. de Jong, N. Govind, K. Kowalski,
       T. P. Straatsma, M. Valiev, H. J. J. van Dam, D. Wang, T. L. Windus,
        J. Hammond, J. Autschbach, K. Bhaskaran-Nair, J. Brabec, K. Lopata,
    S. A. Fischer, S. Krishnamoorthy, M. Jacquelin, W. Ma, M. Klemm, O. Villa,
      Y. Chen, V. Anisimov, F. Aquino, S. Hirata, M. T. Hackler, V. Konjkov,
      T. Risthaus, M. Malagoli, A. Marenich, A. Otero-de-la-Roza, J. Mullin,
        P. Nichols, R. Peverati, J. Pittner, Y. Zhao, P.-D. Fan, A. Fonari,
       M. Williamson, R. J. Harrison, J. R. Rehr, M. Dupuis, D. Silverstein,
    D. M. A. Smith, J. Nieplocha, V. Tipparaju, M. Krishnan, B. E. Van Kuiken,
        A. Vazquez-Mayagoitia, L. Jensen, M. Swart, Q. Wu, T. Van Voorhis,
     A. A. Auer, M. Nooijen, L. D. Crosby, E. Brown, G. Cisneros, G. I. Fann,
   H. Fruchtl, J. Garza, K. Hirao, R. A. Kendall, J. A. Nichols, K. Tsemekhman,
    K. Wolinski, J. Anchell, D. E. Bernholdt, P. Borowski, T. Clark, D. Clerc,
   H. Dachsel, M. J. O. Deegan, K. Dyall, D. Elwood, E. Glendening, M. Gutowski,
   A. C. Hess, J. Jaffe, B. G. Johnson, J. Ju, R. Kobayashi, R. Kutteh, Z. Lin,
   R. Littlefield, X. Long, B. Meng, T. Nakajima, S. Niu, L. Pollack, M. Rosing,
   K. Glaesemann, G. Sandrone, M. Stave, H. Taylor, G. Thomas, J. H. van Lenthe,
                               A. T. Wong, Z. Zhang.

 Total times  cpu:      200.5s     wall:      261.9s
