 argument  1 = input-wf.nw



============================== echo of input deck ==============================
echo
start wfn1_dat
geometry units au noautoz
  H 0 0 -1.69434600000000000000
  H 0 0  1.69434600000000000000
  symmetry cs
end
basis
  H library 6-31g**
end
set wfn1:input_vectors "atomic"
set wfn1:solver "monte-carlo"
set wfn1:print_error F
set wfn1:t_initial 0.1
#set wfn1:corr_expr "wfn1_mx"
set wfn1:corr_expr "wfn1c"
set wfn1:t_bath 0.0
set wfn1:maxit  20000
task wfn1 energy
================================================================================


                                         
                                         


              Northwest Computational Chemistry Package (NWChem) 6.8
              ------------------------------------------------------


                    Environmental Molecular Sciences Laboratory
                       Pacific Northwest National Laboratory
                                Richland, WA 99352

                              Copyright (c) 1994-2015
                       Pacific Northwest National Laboratory
                            Battelle Memorial Institute

             NWChem is an open-source computational chemistry package
                        distributed under the terms of the
                      Educational Community License (ECL) 2.0
             A copy of the license is included with this distribution
                              in the LICENSE.TXT file

                                  ACKNOWLEDGMENT
                                  --------------

            This software and its documentation were developed at the
            EMSL at Pacific Northwest National Laboratory, a multiprogram
            national laboratory, operated for the U.S. Department of Energy
            by Battelle under Contract Number DE-AC05-76RL01830. Support
            for this work was provided by the Department of Energy Office
            of Biological and Environmental Research, Office of Basic
            Energy Sciences, and the Office of Advanced Scientific Computing.


           Job information
           ---------------

    hostname        = erato
    program         = ../../../bin/LINUX64/nwchem
    date            = Mon Mar  1 16:25:08 2021

    compiled        = Sun_Feb_28_18:02:42_2021
    source          = /home/hvandam/nwchem-1-wfn1
    nwchem branch   = Development
    nwchem revision = nwchem_on_git-124-gad72d19fff205e319ffbbf2bca37a04ded6ad57b
    ga revision     = nwchem_on_git-124-gad72d19
    use scalapack   = F
    input           = input-wf.nw
    prefix          = wfn1_dat.
    data base       = ./wfn1_dat.db
    status          = startup
    nproc           =        1
    time left       =     -1s



           Memory information
           ------------------

    heap     =   13107200 doubles =    100.0 Mbytes
    stack    =   13107197 doubles =    100.0 Mbytes
    global   =   26214400 doubles =    200.0 Mbytes (distinct from heap & stack)
    total    =   52428797 doubles =    400.0 Mbytes
    verify   = yes
    hardfail = no 


           Directory information
           ---------------------

  0 permanent = .
  0 scratch   = .




                                NWChem Input Module
                                -------------------


 Turning off AUTOSYM since
 SYMMETRY directive was detected!



                             Geometry "geometry" -> ""
                             -------------------------

 Output coordinates in a.u. (scale by  1.000000000 to convert to a.u.)

  No.       Tag          Charge          X              Y              Z
 ---- ---------------- ---------- -------------- -------------- --------------
    1 H                    1.0000     0.00000000     0.00000000    -1.69434600
    2 H                    1.0000     0.00000000     0.00000000     1.69434600

      Atomic Mass 
      ----------- 

      H                  1.007825


 Effective nuclear repulsion energy (a.u.)       0.2950991120

            Nuclear Dipole moment (a.u.) 
            ----------------------------
        X                 Y               Z
 ---------------- ---------------- ----------------
     0.0000000000     0.0000000000     0.0000000000

      Symmetry information
      --------------------

 Group name             Cs        
 Group number              2
 Group order               2
 No. of unique centers     1

      Symmetry unique atoms

     1


            XYZ format geometry
            -------------------
     2
 geometry
 H                     0.00000000     0.00000000    -0.89660936
 H                     0.00000000     0.00000000     0.89660936

                      Basis "ao basis" -> "" (cartesian)
                      -----
  H (Hydrogen)
  ------------
            Exponent  Coefficients 
       -------------- ---------------------------------------------------------
  1 S  1.87311370E+01  0.033495
  1 S  2.82539370E+00  0.234727
  1 S  6.40121700E-01  0.813757

  2 S  1.61277800E-01  1.000000

  3 P  1.10000000E+00  1.000000



 Summary of "ao basis" -> "" (cartesian)
 ------------------------------------------------------------------------------
       Tag                 Description            Shells   Functions and Types
 ---------------- ------------------------------  ------  ---------------------
 H                          6-31g**                  3        5   2s1p



                                NWChem WFN1 Module
                                ------------------



          No. of electrons :     2
           Alpha electrons :     1
            Beta electrons :     1
          Charge           :     0
          Spin multiplicity:     1

 HvD: wfn1_inpdft
 HvD: nquad_task =                     1
 HvD: iangquad   =                     0
 HvD: gridtype   = user      
 HvD: leb        =  T
 HvD: radgrid    = murakn    
 HvD: trunc_neigh=  T
 HvD: lssw       =  T
 HvD: whichssw   = erf1    
 HvD: mxnrad     =                     0
 HvD: mxnang     =                     0
 HVD: wfn1: movecs_in  = atomic                                                                                                                                                                                                                                                          
 HVD: wfn1: movecs_out = ./wfn1_dat.movecs                                                                                                                                                                                                                                               

      Superposition of Atomic Density Guess
      -------------------------------------

 Sum of atomic energies:          -0.99646508

      Non-variational initial energy
      ------------------------------

 Total energy =      -0.703064
 1-e energy   =      -1.584963
 2-e energy   =       0.586800
 HOMO         =      -0.291725
 LUMO         =      -0.078787

 iteration              energy           error
 ---------              ------           -----
         0         -0.93749420        0.200000
         1         -0.94223631        0.200000
         2         -0.94419359        0.200000
         3         -0.94474926        0.200000
         4         -0.94641404        0.200000
         5         -0.94902349        0.200000
         6         -0.94942170        0.200000
         7         -0.94963897        0.200000
         8         -0.94975903        0.200000
         9         -0.95109803        0.200000
        10         -0.95142783        0.200000
        11         -0.95166565        0.200000
        12         -0.95172116        0.200000
        13         -0.95225636        0.200000
        14         -0.95255062        0.146973
        15         -0.95302731        0.146973
        16         -0.95326306        0.146973
        17         -0.95332094        0.146973
        18         -0.95387645        0.146973
        19         -0.95414680        0.136079
        20         -0.95417460        0.116653
        21         -0.95446211        0.116653
        22         -0.95477461        0.116653
        23         -0.95490688        0.108006
        24         -0.95495185        0.100000
        25         -0.95501148        0.100000
        26         -0.95502155        0.100000
        27         -0.95511549        0.092587
        28         -0.95521993        0.092587
        29         -0.95526473        0.085724
        30         -0.95531923        0.085724
        31         -0.95540969        0.079370
        32         -0.95544132        0.079370
        33         -0.95556383        0.073487
        34         -0.95566026        0.073487
        35         -0.95566535        0.068040
        36         -0.95566848        0.068040
        37         -0.95571359        0.068040
        38         -0.95572057        0.068040
        39         -0.95577766        0.068040
        40         -0.95581622        0.062996
        41         -0.95600388        0.062996
        42         -0.95603203        0.062996
        43         -0.95606432        0.058326
        44         -0.95613732        0.058326
        45         -0.95614336        0.058326
        46         -0.95619799        0.058326
        47         -0.95620072        0.058326
        48         -0.95632452        0.054003
        49         -0.95640692        0.054003
        50         -0.95647864        0.050000
        51         -0.95652243        0.046294
        52         -0.95654488        0.046294
        53         -0.95656263        0.046294
        54         -0.95656861        0.046294
        55         -0.95657697        0.046294
        56         -0.95662441        0.046294
        57         -0.95662832        0.046294
        58         -0.95664487        0.046294
        59         -0.95665169        0.046294
        60         -0.95665309        0.046294
        61         -0.95670341        0.046294
        62         -0.95673143        0.046294
        63         -0.95673223        0.046294
        64         -0.95675487        0.046294
        65         -0.95681790        0.046294
        66         -0.95682413        0.046294
        67         -0.95683769        0.046294
        68         -0.95692170        0.046294
        69         -0.95692534        0.039685
        70         -0.95698844        0.039685
        71         -0.95701398        0.039685
        72         -0.95701400        0.039685
        73         -0.95703086        0.036743
        74         -0.95704057        0.031498
        75         -0.95704233        0.031498
        76         -0.95704728        0.031498
        77         -0.95704965        0.031498
        78         -0.95707971        0.031498
        79         -0.95708631        0.031498
        80         -0.95710464        0.025000
        81         -0.95711189        0.025000
        82         -0.95712041        0.025000
        83         -0.95712088        0.023147
        84         -0.95712340        0.023147
        85         -0.95712612        0.023147
        86         -0.95712690        0.023147
        87         -0.95713631        0.023147
        88         -0.95713839        0.023147
        89         -0.95714270        0.021431
        90         -0.95714836        0.021431
        91         -0.95716819        0.021431
        92         -0.95717483        0.021431
        93         -0.95717941        0.019843
        94         -0.95718649        0.019843
        95         -0.95719453        0.019843
        96         -0.95720731        0.018372
        97         -0.95721053        0.018372
        98         -0.95721416        0.018372
        99         -0.95721493        0.018372
       100         -0.95722085        0.018372
       101         -0.95722266        0.018372
       102         -0.95722602        0.018372
       103         -0.95723108        0.018372
       104         -0.95724534        0.018372
       105         -0.95724945        0.018372
       106         -0.95725022        0.018372
       107         -0.95727322        0.018372
       108         -0.95727655        0.018372
       109         -0.95729114        0.018372
       110         -0.95729197        0.018372
       111         -0.95729953        0.018372
       112         -0.95730094        0.018372
       113         -0.95730533        0.018372
       114         -0.95731124        0.018372
       115         -0.95731981        0.018372
       116         -0.95733194        0.018372
       117         -0.95733268        0.018372
       118         -0.95733933        0.018372
       119         -0.95735015        0.018372
       120         -0.95735988        0.018372
       121         -0.95736348        0.017010
       122         -0.95737561        0.017010
       123         -0.95737952        0.015749
       124         -0.95738471        0.015749
       125         -0.95739161        0.015749
       126         -0.95739181        0.015749
       127         -0.95740313        0.015749
       128         -0.95740435        0.015749
       129         -0.95740603        0.015749
       130         -0.95741116        0.015749
       131         -0.95741272        0.015749
       132         -0.95742048        0.015749
       133         -0.95742835        0.015749
       134         -0.95742896        0.015749
       135         -0.95743664        0.015749
       136         -0.95743734        0.015749
       137         -0.95744783        0.015749
       138         -0.95745458        0.015749
       139         -0.95746737        0.015749
       140         -0.95747741        0.015749
       141         -0.95748497        0.015749
       142         -0.95749450        0.015749
       143         -0.95749573        0.014582
       144         -0.95749733        0.014582
       145         -0.95750335        0.014582
       146         -0.95750790        0.014582
       147         -0.95751553        0.014582
       148         -0.95751863        0.014582
       149         -0.95752513        0.014582
       150         -0.95752907        0.014582
       151         -0.95753065        0.014582
       152         -0.95754047        0.014582
       153         -0.95754423        0.014582
       154         -0.95754653        0.014582
       155         -0.95754697        0.014582
       156         -0.95754930        0.014582
       157         -0.95755176        0.014582
       158         -0.95755727        0.014582
       159         -0.95756164        0.014582
       160         -0.95756438        0.014582
       161         -0.95757032        0.011573
       162         -0.95757079        0.011573
       163         -0.95757445        0.011573
       164         -0.95758250        0.011573
       165         -0.95758519        0.011573
       166         -0.95758699        0.011573
       167         -0.95758902        0.010716
       168         -0.95759267        0.010716
       169         -0.95759304        0.010716
       170         -0.95759346        0.010716
       171         -0.95760015        0.010716
       172         -0.95760152        0.010716
       173         -0.95760527        0.010716
       174         -0.95760917        0.010716
       175         -0.95761009        0.010716
       176         -0.95761302        0.010716
       177         -0.95761693        0.010716
       178         -0.95761895        0.010716
       179         -0.95761998        0.010716
       180         -0.95762464        0.010716
       181         -0.95763033        0.010716
       182         -0.95763658        0.010716
       183         -0.95764025        0.010716
       184         -0.95764052        0.010716
       185         -0.95764443        0.010716
       186         -0.95764640        0.010716
       187         -0.95766161        0.010716
       188         -0.95766572        0.010716
       189         -0.95766585        0.010716
       190         -0.95766987        0.010716
       191         -0.95767255        0.010716
       192         -0.95768014        0.010716
       193         -0.95768156        0.010716
       194         -0.95768247        0.010716
       195         -0.95768328        0.010716
       196         -0.95768535        0.010716
       197         -0.95768601        0.010716
       198         -0.95768635        0.010716
       199         -0.95769072        0.010716
       200         -0.95769091        0.010716
       201         -0.95769518        0.010716
       202         -0.95769775        0.010716
       203         -0.95769899        0.010716
       204         -0.95770660        0.010716
       205         -0.95770956        0.010716
       206         -0.95771069        0.010716
       207         -0.95771117        0.010716
       208         -0.95771499        0.010716
       209         -0.95771630        0.010716
       210         -0.95771902        0.010716
       211         -0.95772168        0.010716
       212         -0.95772989        0.010716
       213         -0.95773041        0.010716
       214         -0.95773075        0.010716
       215         -0.95773178        0.010716
       216         -0.95773356        0.010716
       217         -0.95773476        0.010716
       218         -0.95774656        0.010716
       219         -0.95774910        0.010716
       220         -0.95775253        0.010716
       221         -0.95776181        0.010716
       222         -0.95776623        0.010716
       223         -0.95776636        0.010716
       224         -0.95776899        0.010716
       225         -0.95777016        0.010716
       226         -0.95777437        0.010716
       227         -0.95777518        0.010716
       228         -0.95778098        0.010716
       229         -0.95778259        0.010716
       230         -0.95778337        0.010716
       231         -0.95778720        0.010716
       232         -0.95779082        0.010716
       233         -0.95780105        0.010716
       234         -0.95780133        0.010716
       235         -0.95780223        0.010716
       236         -0.95780325        0.010716
       237         -0.95780418        0.010716
       238         -0.95780635        0.010716
       239         -0.95780642        0.010716
       240         -0.95780857        0.010716
       241         -0.95781001        0.010716
       242         -0.95781277        0.010716
       243         -0.95781693        0.010716
       244         -0.95782176        0.010716
       245         -0.95782413        0.010716
       246         -0.95782696        0.010716
       247         -0.95782730        0.010716
       248         -0.95782812        0.010716
       249         -0.95782860        0.010716
       250         -0.95782963        0.010716
       251         -0.95783195        0.010716
       252         -0.95783303        0.010716
       253         -0.95783563        0.010716
       254         -0.95783690        0.010716
       255         -0.95783839        0.010716
       256         -0.95784211        0.010716
       257         -0.95784366        0.010716
       258         -0.95784508        0.010716
       259         -0.95784939        0.010716
       260         -0.95785034        0.010716
       261         -0.95785035        0.010716
       262         -0.95785229        0.010716
       263         -0.95785385        0.010716
       264         -0.95786072        0.010716
       265         -0.95786079        0.010716
       266         -0.95786119        0.010716
       267         -0.95786412        0.010716
       268         -0.95786456        0.010716
       269         -0.95786732        0.010716
       270         -0.95787210        0.010716
       271         -0.95787280        0.010716
       272         -0.95787565        0.010716
       273         -0.95787781        0.010716
       274         -0.95787994        0.010716
       275         -0.95788122        0.010716
       276         -0.95788656        0.010716
       277         -0.95789105        0.010716
       278         -0.95789484        0.010716
       279         -0.95790096        0.010716
       280         -0.95790152        0.010716
       281         -0.95790443        0.010716
       282         -0.95790568        0.010716
       283         -0.95791476        0.010716
       284         -0.95791640        0.010716
       285         -0.95791768        0.010716
       286         -0.95792434        0.010716
       287         -0.95792437        0.010716
       288         -0.95792532        0.010716
       289         -0.95792657        0.010716
       290         -0.95792761        0.010716
       291         -0.95793340        0.010716
       292         -0.95793597        0.010716
       293         -0.95794029        0.010716
       294         -0.95794574        0.010716
       295         -0.95794966        0.010716
       296         -0.95795118        0.010716
       297         -0.95795637        0.010716
       298         -0.95796229        0.010716
       299         -0.95796583        0.010716
       300         -0.95796692        0.010716
       301         -0.95796740        0.010716
       302         -0.95797000        0.010716
       303         -0.95797280        0.010716
       304         -0.95797359        0.010716
       305         -0.95797987        0.010716
       306         -0.95798073        0.010716
       307         -0.95798327        0.010716
       308         -0.95798421        0.010716
       309         -0.95798624        0.010716
       310         -0.95798857        0.010716
       311         -0.95799203        0.010716
       312         -0.95799962        0.009921
       313         -0.95800259        0.009921
       314         -0.95800727        0.009921
       315         -0.95800756        0.009921
       316         -0.95800896        0.009921
       317         -0.95801200        0.009921
       318         -0.95801233        0.009921
       319         -0.95802016        0.009921
       320         -0.95802169        0.009921
       321         -0.95802188        0.009921
       322         -0.95802216        0.009921
       323         -0.95802506        0.009921
       324         -0.95802665        0.009921
       325         -0.95802686        0.009921
       326         -0.95803028        0.009921
       327         -0.95803139        0.009921
       328         -0.95803310        0.009921
       329         -0.95803933        0.009921
       330         -0.95804052        0.009921
       331         -0.95804455        0.009921
       332         -0.95804490        0.009921
       333         -0.95804784        0.009921
       334         -0.95804918        0.009921
       335         -0.95805006        0.009921
       336         -0.95805072        0.009921
       337         -0.95805074        0.009921
       338         -0.95805133        0.009921
       339         -0.95805752        0.009921
       340         -0.95806173        0.009921
       341         -0.95806226        0.009921
       342         -0.95806274        0.009921
       343         -0.95806448        0.009921
       344         -0.95807031        0.009921
       345         -0.95807137        0.009921
       346         -0.95807209        0.009921
       347         -0.95807237        0.009921
       348         -0.95807561        0.009921
       349         -0.95807622        0.009921
       350         -0.95807778        0.009921
       351         -0.95807871        0.009921
       352         -0.95808435        0.009921
       353         -0.95808692        0.009921
       354         -0.95809076        0.009921
       355         -0.95809129        0.009921
       356         -0.95809170        0.009921
       357         -0.95809302        0.009921
       358         -0.95809356        0.009921
       359         -0.95810079        0.009921
       360         -0.95810218        0.009921
       361         -0.95810485        0.009921
       362         -0.95810740        0.009921
       363         -0.95810874        0.009921
       364         -0.95811026        0.009921
       365         -0.95811278        0.009921
       366         -0.95811431        0.009921
       367         -0.95811524        0.009921
       368         -0.95811706        0.009921
       369         -0.95811807        0.009921
       370         -0.95811863        0.009921
       371         -0.95812075        0.009186
       372         -0.95812091        0.009186
       373         -0.95812399        0.009186
       374         -0.95813085        0.009186
       375         -0.95813394        0.009186
       376         -0.95813653        0.009186
       377         -0.95813699        0.009186
       378         -0.95813842        0.009186
       379         -0.95814101        0.009186
       380         -0.95814127        0.009186
       381         -0.95814378        0.009186
       382         -0.95814598        0.009186
       383         -0.95815037        0.009186
       384         -0.95815139        0.009186
       385         -0.95815222        0.009186
       386         -0.95815465        0.009186
       387         -0.95815492        0.009186
       388         -0.95815762        0.009186
       389         -0.95815999        0.009186
       390         -0.95816903        0.009186
       391         -0.95817253        0.009186
       392         -0.95817331        0.009186
       393         -0.95817455        0.009186
       394         -0.95817497        0.009186
       395         -0.95817576        0.009186
       396         -0.95817610        0.009186
       397         -0.95817693        0.009186
       398         -0.95818183        0.009186
       399         -0.95818251        0.009186
       400         -0.95818910        0.009186
       401         -0.95819394        0.009186
       402         -0.95819509        0.009186
       403         -0.95819590        0.009186
       404         -0.95819850        0.009186
       405         -0.95820519        0.009186
       406         -0.95820936        0.009186
       407         -0.95820949        0.009186
       408         -0.95821134        0.009186
       409         -0.95821391        0.009186
       410         -0.95821723        0.009186
       411         -0.95821904        0.009186
       412         -0.95821934        0.009186
       413         -0.95821949        0.009186
       414         -0.95822026        0.009186
       415         -0.95822106        0.009186
       416         -0.95822407        0.009186
       417         -0.95822414        0.009186
       418         -0.95822588        0.009186
       419         -0.95822708        0.009186
       420         -0.95822957        0.009186
       421         -0.95823287        0.009186
       422         -0.95823460        0.009186
       423         -0.95824216        0.009186
       424         -0.95824393        0.009186
       425         -0.95824448        0.009186
       426         -0.95824653        0.009186
       427         -0.95824965        0.009186
       428         -0.95825342        0.009186
       429         -0.95825568        0.009186
       430         -0.95825799        0.009186
       431         -0.95825830        0.008505
       432         -0.95825938        0.008505
       433         -0.95826004        0.008505
       434         -0.95826377        0.008505
       435         -0.95826486        0.007875
       436         -0.95826724        0.007875
       437         -0.95826901        0.007875
       438         -0.95827210        0.007875
       439         -0.95827228        0.007875
       440         -0.95827283        0.007875
       441         -0.95827438        0.007875
       442         -0.95827598        0.007875
       443         -0.95827799        0.007875
       444         -0.95828002        0.007875
       445         -0.95828094        0.007875
       446         -0.95828583        0.007875
       447         -0.95828793        0.007875
       448         -0.95828833        0.007875
       449         -0.95828911        0.007875
       450         -0.95829350        0.007875
       451         -0.95829474        0.007875
       452         -0.95829603        0.007875
       453         -0.95829793        0.007875
       454         -0.95830155        0.007875
       455         -0.95830282        0.007875
       456         -0.95830680        0.007875
       457         -0.95830907        0.007875
       458         -0.95831039        0.007875
       459         -0.95831062        0.007875
       460         -0.95831287        0.007875
       461         -0.95831660        0.007875
       462         -0.95831830        0.007875
       463         -0.95832325        0.007875
       464         -0.95832524        0.007875
       465         -0.95832551        0.007875
       466         -0.95832740        0.007875
       467         -0.95833250        0.007875
       468         -0.95833416        0.007875
       469         -0.95834005        0.007875
       470         -0.95834256        0.007875
       471         -0.95834671        0.007875
       472         -0.95834840        0.007875
       473         -0.95835027        0.007875
       474         -0.95835067        0.007875
       475         -0.95835305        0.007875
       476         -0.95835359        0.007875
       477         -0.95835389        0.007875
       478         -0.95835403        0.007875
       479         -0.95835403        0.007875
       480         -0.95836055        0.007875
       481         -0.95836133        0.007875
       482         -0.95836714        0.007875
       483         -0.95836875        0.007875
       484         -0.95837162        0.007875
       485         -0.95837337        0.007875
       486         -0.95837496        0.007875
       487         -0.95837783        0.007875
       488         -0.95837901        0.007875
       489         -0.95838057        0.007875
       490         -0.95838176        0.007875
       491         -0.95839016        0.007875
       492         -0.95839072        0.007875
       493         -0.95839076        0.007875
       494         -0.95839082        0.007875
       495         -0.95839108        0.007875
       496         -0.95839394        0.007875
       497         -0.95839480        0.007875
       498         -0.95839636        0.007875
       499         -0.95839728        0.007875
       500         -0.95839995        0.007875
       501         -0.95840036        0.007875
       502         -0.95840183        0.007875
       503         -0.95840297        0.007875
       504         -0.95840381        0.007875
       505         -0.95840706        0.007875
       506         -0.95840868        0.007875
       507         -0.95841014        0.007875
       508         -0.95841242        0.007875
       509         -0.95841344        0.007875
       510         -0.95841809        0.007875
       511         -0.95842298        0.007875
       512         -0.95842424        0.007875
       513         -0.95842494        0.007875
       514         -0.95842629        0.007875
       515         -0.95842946        0.007875
       516         -0.95843323        0.007875
       517         -0.95843603        0.007875
       518         -0.95843688        0.007875
       519         -0.95843887        0.007875
       520         -0.95843892        0.007875
       521         -0.95843986        0.007875
       522         -0.95844121        0.007875
       523         -0.95844396        0.007875
       524         -0.95844513        0.007875
       525         -0.95844638        0.007875
       526         -0.95844720        0.007875
       527         -0.95844821        0.007875
       528         -0.95845074        0.007875
       529         -0.95845668        0.007875
       530         -0.95846114        0.007875
       531         -0.95846121        0.007875
       532         -0.95846249        0.007875
       533         -0.95846383        0.007875
       534         -0.95846615        0.007875
       535         -0.95846816        0.007875
       536         -0.95846850        0.007875
       537         -0.95846968        0.007875
       538         -0.95847136        0.007875
       539         -0.95847452        0.007875
       540         -0.95847545        0.007875
       541         -0.95847662        0.007875
       542         -0.95847975        0.007875
       543         -0.95848315        0.007875
       544         -0.95848726        0.007875
       545         -0.95848784        0.007875
       546         -0.95848907        0.007875
       547         -0.95848936        0.007875
       548         -0.95849095        0.007875
       549         -0.95849189        0.007875
       550         -0.95849668        0.007875
       551         -0.95850009        0.007291
       552         -0.95850015        0.007291
       553         -0.95850096        0.007291
       554         -0.95850424        0.007291
       555         -0.95850448        0.007291
       556         -0.95850862        0.007291
       557         -0.95850974        0.007291
       558         -0.95851156        0.007291
       559         -0.95851367        0.007291
       560         -0.95851402        0.007291
       561         -0.95851413        0.007291
       562         -0.95851611        0.007291
       563         -0.95851649        0.007291
       564         -0.95851778        0.007291
       565         -0.95852031        0.007291
       566         -0.95852281        0.007291
       567         -0.95852369        0.007291
       568         -0.95852413        0.007291
       569         -0.95852519        0.007291
       570         -0.95852987        0.007291
       571         -0.95853183        0.007291
       572         -0.95853238        0.007291
       573         -0.95853652        0.007291
       574         -0.95853862        0.007291
       575         -0.95854272        0.007291
       576         -0.95854641        0.007291
       577         -0.95854681        0.007291
       578         -0.95854902        0.007291
       579         -0.95854926        0.007291
       580         -0.95854953        0.007291
       581         -0.95854962        0.007291
       582         -0.95855093        0.007291
       583         -0.95855121        0.007291
       584         -0.95855200        0.007291
       585         -0.95855249        0.007291
       586         -0.95855272        0.007291
       587         -0.95855313        0.007291
       588         -0.95855409        0.007291
       589         -0.95855734        0.007291
       590         -0.95855795        0.007291
       591         -0.95855829        0.007291
       592         -0.95855836        0.007291
       593         -0.95856027        0.007291
       594         -0.95856052        0.007291
       595         -0.95856573        0.007291
       596         -0.95856888        0.007291
       597         -0.95857051        0.007291
       598         -0.95857240        0.007291
       599         -0.95857581        0.007291
       600         -0.95857747        0.007291
       601         -0.95858284        0.007291
       602         -0.95858438        0.007291
       603         -0.95858872        0.007291
       604         -0.95859228        0.007291
       605         -0.95859369        0.007291
       606         -0.95859728        0.007291
       607         -0.95859854        0.007291
       608         -0.95860501        0.007291
       609         -0.95860624        0.007291
       610         -0.95860883        0.007291
       611         -0.95861317        0.007291
       612         -0.95861425        0.007291
       613         -0.95862162        0.007291
       614         -0.95862182        0.007291
       615         -0.95862323        0.007291
       616         -0.95862506        0.007291
       617         -0.95862631        0.007291
       618         -0.95862714        0.007291
       619         -0.95863021        0.007291
       620         -0.95863294        0.007291
       621         -0.95863449        0.007291
       622         -0.95863558        0.007291
       623         -0.95863695        0.007291
       624         -0.95863727        0.007291
       625         -0.95863859        0.007291
       626         -0.95864123        0.007291
       627         -0.95864349        0.007291
       628         -0.95864473        0.007291
       629         -0.95864635        0.007291
       630         -0.95864861        0.007291
       631         -0.95865066        0.007291
       632         -0.95865180        0.007291
       633         -0.95865315        0.007291
       634         -0.95865414        0.007291
       635         -0.95865808        0.007291
       636         -0.95866335        0.007291
       637         -0.95866348        0.007291
       638         -0.95866483        0.007291
       639         -0.95866516        0.007291
       640         -0.95866690        0.007291
       641         -0.95866844        0.007291
       642         -0.95867025        0.007291
       643         -0.95867133        0.007291
       644         -0.95867515        0.007291
       645         -0.95867657        0.007291
       646         -0.95868143        0.007291
       647         -0.95868179        0.007291
       648         -0.95868266        0.007291
       649         -0.95868424        0.007291
       650         -0.95868440        0.007291
       651         -0.95868619        0.007291
       652         -0.95868883        0.007291
       653         -0.95868932        0.007291
       654         -0.95869309        0.007291
       655         -0.95869433        0.007291
       656         -0.95869542        0.007291
       657         -0.95869903        0.007291
       658         -0.95869971        0.007291
       659         -0.95870022        0.007291
       660         -0.95870138        0.007291
       661         -0.95870189        0.007291
       662         -0.95870258        0.007291
       663         -0.95870292        0.007291
       664         -0.95870636        0.007291
       665         -0.95870804        0.007291
       666         -0.95870890        0.007291
       667         -0.95870923        0.007291
       668         -0.95870942        0.007291
       669         -0.95871450        0.007291
       670         -0.95871551        0.007291
       671         -0.95871985        0.007291
       672         -0.95872250        0.007291
       673         -0.95872252        0.007291
       674         -0.95872340        0.007291
       675         -0.95872444        0.007291
       676         -0.95872595        0.007291
       677         -0.95872866        0.007291
       678         -0.95872873        0.007291
       679         -0.95873328        0.007291
       680         -0.95873475        0.007291
       681         -0.95873557        0.007291
       682         -0.95873815        0.007291
       683         -0.95874043        0.007291
       684         -0.95874205        0.007291
       685         -0.95874356        0.007291
       686         -0.95874370        0.007291
       687         -0.95874602        0.007291
       688         -0.95874654        0.007291
       689         -0.95874708        0.007291
       690         -0.95874900        0.007291
       691         -0.95875064        0.007291
       692         -0.95875093        0.007291
       693         -0.95875197        0.007291
       694         -0.95875775        0.007291
       695         -0.95875919        0.007291
       696         -0.95875998        0.007291
       697         -0.95876474        0.007291
       698         -0.95876783        0.007291
       699         -0.95876845        0.007291
       700         -0.95877101        0.007291
       701         -0.95877261        0.007291
       702         -0.95877654        0.007291
       703         -0.95878211        0.007291
       704         -0.95878380        0.007291
       705         -0.95878452        0.007291
       706         -0.95878824        0.007291
       707         -0.95878887        0.007291
       708         -0.95879219        0.007291
       709         -0.95879266        0.007291
       710         -0.95879406        0.007291
       711         -0.95879546        0.007291
       712         -0.95879680        0.007291
       713         -0.95879821        0.007291
       714         -0.95879981        0.007291
       715         -0.95880115        0.007291
       716         -0.95880278        0.007291
       717         -0.95880374        0.007291
       718         -0.95880399        0.007291
       719         -0.95880589        0.007291
       720         -0.95880593        0.007291
       721         -0.95880620        0.007291
       722         -0.95880741        0.007291
       723         -0.95880984        0.006750
       724         -0.95881224        0.006750
       725         -0.95881508        0.006750
       726         -0.95881836        0.006750
       727         -0.95881877        0.006750
       728         -0.95881893        0.006750
       729         -0.95882215        0.006750
       730         -0.95882481        0.006750
       731         -0.95882636        0.006750
       732         -0.95882661        0.006750
       733         -0.95882755        0.006750
       734         -0.95882921        0.006750
       735         -0.95883089        0.006750
       736         -0.95883303        0.006750
       737         -0.95883615        0.006750
       738         -0.95883859        0.006750
       739         -0.95884124        0.006750
       740         -0.95884131        0.006750
       741         -0.95884357        0.006750
       742         -0.95884588        0.006750
       743         -0.95885272        0.006750
       744         -0.95885492        0.006750
       745         -0.95885584        0.006750
       746         -0.95885717        0.006750
       747         -0.95885808        0.006750
       748         -0.95885819        0.006750
       749         -0.95885879        0.006750
       750         -0.95885915        0.006750
       751         -0.95885999        0.006750
       752         -0.95886220        0.006750
       753         -0.95886567        0.006750
       754         -0.95886626        0.006750
       755         -0.95886843        0.006750
       756         -0.95887284        0.006750
       757         -0.95887596        0.006750
       758         -0.95887860        0.006750
       759         -0.95888209        0.006750
       760         -0.95888667        0.006750
       761         -0.95888935        0.006750
       762         -0.95888987        0.006750
       763         -0.95889141        0.006750
       764         -0.95889486        0.006750
       765         -0.95889589        0.006750
       766         -0.95889650        0.006750
       767         -0.95889846        0.006750
       768         -0.95890005        0.006750
       769         -0.95890140        0.006750
       770         -0.95890172        0.006750
       771         -0.95890403        0.006750
       772         -0.95890467        0.006750
       773         -0.95890488        0.006750
       774         -0.95890556        0.006750
       775         -0.95891151        0.006750
       776         -0.95891289        0.006750
       777         -0.95891392        0.006750
       778         -0.95891507        0.006750
       779         -0.95891612        0.006750
       780         -0.95891872        0.006750
       781         -0.95891999        0.006750
       782         -0.95892189        0.006750
       783         -0.95892306        0.006750
       784         -0.95892397        0.006750
       785         -0.95892642        0.006750
       786         -0.95892724        0.006750
       787         -0.95893017        0.006750
       788         -0.95893025        0.006750
       789         -0.95893528        0.006750
       790         -0.95893701        0.006750
       791         -0.95893983        0.006750
       792         -0.95893988        0.006750
       793         -0.95894027        0.006750
       794         -0.95894337        0.006750
       795         -0.95894403        0.006750
       796         -0.95894408        0.006750
       797         -0.95894417        0.006750
       798         -0.95894481        0.006750
       799         -0.95894539        0.006750
       800         -0.95894603        0.006750
       801         -0.95894654        0.006750
       802         -0.95894828        0.006750
       803         -0.95894879        0.006750
       804         -0.95895109        0.006750
       805         -0.95895694        0.006750
       806         -0.95895859        0.006750
       807         -0.95896027        0.006750
       808         -0.95896045        0.006750
       809         -0.95896121        0.006750
       810         -0.95896140        0.006750
       811         -0.95896255        0.006750
       812         -0.95896640        0.006750
       813         -0.95896730        0.006750
       814         -0.95897072        0.006750
       815         -0.95897357        0.006750
       816         -0.95897548        0.006750
       817         -0.95897855        0.006750
       818         -0.95897858        0.006750
       819         -0.95898033        0.006750
       820         -0.95898264        0.006750
       821         -0.95898442        0.006750
       822         -0.95898933        0.006750
       823         -0.95899110        0.006750
       824         -0.95899119        0.006750
       825         -0.95899221        0.006750
       826         -0.95899681        0.006750
       827         -0.95899992        0.006750
       828         -0.95900411        0.006750
       829         -0.95900451        0.006750
       830         -0.95900518        0.006750
       831         -0.95900536        0.006750
       832         -0.95900809        0.006750
       833         -0.95900873        0.006750
       834         -0.95901180        0.006750
       835         -0.95901435        0.006750
       836         -0.95901736        0.006750
       837         -0.95901853        0.006750
       838         -0.95902181        0.006750
       839         -0.95902206        0.006750
       840         -0.95902759        0.006750
       841         -0.95903197        0.006750
       842         -0.95903337        0.006750
       843         -0.95903485        0.006750
       844         -0.95903535        0.006750
       845         -0.95903544        0.006750
       846         -0.95903791        0.006750
       847         -0.95903803        0.006750
       848         -0.95904019        0.006750
       849         -0.95904019        0.006750
       850         -0.95904132        0.006750
       851         -0.95904159        0.006750
       852         -0.95904506        0.006750
       853         -0.95904509        0.006750
       854         -0.95905148        0.006750
       855         -0.95905399        0.006750
       856         -0.95905578        0.006750
       857         -0.95905597        0.006750
       858         -0.95906023        0.006750
       859         -0.95906023        0.006750
       860         -0.95906147        0.006750
       861         -0.95906154        0.006750
       862         -0.95906170        0.006750
       863         -0.95906344        0.006750
       864         -0.95906588        0.006750
       865         -0.95906912        0.006750
       866         -0.95906994        0.006750
       867         -0.95907293        0.006750
       868         -0.95907473        0.006750
       869         -0.95907653        0.006750
       870         -0.95907991        0.006750
       871         -0.95908171        0.006750
       872         -0.95908252        0.006750
       873         -0.95908264        0.006750
       874         -0.95908624        0.006750
       875         -0.95909075        0.006750
       876         -0.95909090        0.006750
       877         -0.95909241        0.006750
       878         -0.95909338        0.006750
       879         -0.95909725        0.006750
       880         -0.95909752        0.006750
       881         -0.95909985        0.006750
       882         -0.95910000        0.006750
       883         -0.95910101        0.006750
       884         -0.95910186        0.006750
       885         -0.95910452        0.006750
       886         -0.95910918        0.006750
       887         -0.95911149        0.006750
       888         -0.95911260        0.006750
       889         -0.95911404        0.006750
       890         -0.95911895        0.006750
       891         -0.95912185        0.006750
       892         -0.95912467        0.006750
       893         -0.95912741        0.006750
       894         -0.95912950        0.006750
       895         -0.95913159        0.006750
       896         -0.95913253        0.006750
       897         -0.95913461        0.006750
       898         -0.95913763        0.006750
       899         -0.95913903        0.006750
       900         -0.95914016        0.006750
       901         -0.95914019        0.006750
       902         -0.95914121        0.006750
       903         -0.95914344        0.006750
       904         -0.95914424        0.006750
       905         -0.95914434        0.006750
       906         -0.95914491        0.006750
       907         -0.95914700        0.006750
       908         -0.95914775        0.006750
       909         -0.95914905        0.006750
       910         -0.95914943        0.006750
       911         -0.95915182        0.006750
       912         -0.95915237        0.006750
       913         -0.95915460        0.006750
       914         -0.95915654        0.006750
       915         -0.95915736        0.006750
       916         -0.95915784        0.006750
       917         -0.95915804        0.006750
       918         -0.95916062        0.006750
       919         -0.95916081        0.006750
       920         -0.95916373        0.006750
       921         -0.95916444        0.006750
       922         -0.95916829        0.006750
       923         -0.95917034        0.006750
       924         -0.95917063        0.006750
       925         -0.95917092        0.006750
       926         -0.95917116        0.006750
       927         -0.95917254        0.006750
       928         -0.95917314        0.006750
       929         -0.95917436        0.006750
       930         -0.95917858        0.006750
       931         -0.95918018        0.006750
       932         -0.95918281        0.006750
       933         -0.95918366        0.006750
       934         -0.95918507        0.006750
       935         -0.95919037        0.006750
       936         -0.95919356        0.006750
       937         -0.95919464        0.006750
       938         -0.95919686        0.006750
       939         -0.95919868        0.006750
       940         -0.95920201        0.006750
       941         -0.95920573        0.006750
       942         -0.95920652        0.006750
       943         -0.95920739        0.006750
       944         -0.95920755        0.006750
       945         -0.95920848        0.006750
       946         -0.95920857        0.006750
       947         -0.95920903        0.006750
       948         -0.95920912        0.006750
       949         -0.95921019        0.006750
       950         -0.95921140        0.006750
       951         -0.95921192        0.006750
       952         -0.95921328        0.006750
       953         -0.95921576        0.006750
       954         -0.95921633        0.006750
       955         -0.95921807        0.006750
       956         -0.95922001        0.006750
       957         -0.95922142        0.006750
       958         -0.95922674        0.006750
       959         -0.95922846        0.006750
       960         -0.95922925        0.006750
       961         -0.95923268        0.006750
       962         -0.95923528        0.006750
       963         -0.95923859        0.006750
       964         -0.95924097        0.006750
       965         -0.95924571        0.006750
       966         -0.95924670        0.006750
       967         -0.95924878        0.006750
       968         -0.95924960        0.006750
       969         -0.95925361        0.006750
       970         -0.95925499        0.006750
       971         -0.95925800        0.006750
       972         -0.95925893        0.006750
       973         -0.95925998        0.006750
       974         -0.95926044        0.006750
       975         -0.95926424        0.006750
       976         -0.95926533        0.006750
       977         -0.95926661        0.006750
       978         -0.95926902        0.006750
       979         -0.95927091        0.006750
       980         -0.95927202        0.006750
       981         -0.95927237        0.006750
       982         -0.95927378        0.006750
       983         -0.95927437        0.006750
       984         -0.95927468        0.006750
       985         -0.95927831        0.006750
       986         -0.95928193        0.006750
       987         -0.95928195        0.006750
       988         -0.95928400        0.006750
       989         -0.95928610        0.006750
       990         -0.95928961        0.006750
       991         -0.95929146        0.006750
       992         -0.95929148        0.006750
       993         -0.95929674        0.006750
       994         -0.95929748        0.006750
       995         -0.95929915        0.006750
       996         -0.95929994        0.006750
       997         -0.95930536        0.006750
       998         -0.95930691        0.006750
       999         -0.95931043        0.006750
      1000         -0.95931365        0.006750
      1001         -0.95931369        0.006750
      1002         -0.95931539        0.006750
      1003         -0.95931621        0.006750
      1004         -0.95932029        0.006750
      1005         -0.95932107        0.006750
      1006         -0.95932410        0.006750
      1007         -0.95932707        0.006750
      1008         -0.95932901        0.006750
      1009         -0.95932949        0.006750
      1010         -0.95933165        0.006750
      1011         -0.95933342        0.006750
      1012         -0.95933458        0.006750
      1013         -0.95933544        0.006750
      1014         -0.95933546        0.006750
      1015         -0.95933622        0.006750
      1016         -0.95933678        0.006750
      1017         -0.95933800        0.006750
      1018         -0.95933993        0.006750
      1019         -0.95934238        0.006750
      1020         -0.95934671        0.006750
      1021         -0.95934912        0.006750
      1022         -0.95935081        0.006750
      1023         -0.95935356        0.006750
      1024         -0.95935611        0.006750
      1025         -0.95935695        0.006750
      1026         -0.95935711        0.006750
      1027         -0.95935755        0.006750
      1028         -0.95935768        0.006750
      1029         -0.95935835        0.006750
      1030         -0.95936142        0.006750
      1031         -0.95936341        0.006750
      1032         -0.95936362        0.006750
      1033         -0.95936362        0.006750
      1034         -0.95936548        0.006750
      1035         -0.95936764        0.006750
      1036         -0.95937248        0.006750
      1037         -0.95937279        0.006750
      1038         -0.95937420        0.006750
      1039         -0.95937421        0.006750
      1040         -0.95937430        0.006750
      1041         -0.95937707        0.006750
      1042         -0.95937801        0.006750
      1043         -0.95937919        0.006750
      1044         -0.95938248        0.006750
      1045         -0.95938480        0.006750
      1046         -0.95938783        0.006750
      1047         -0.95939012        0.006750
      1048         -0.95939180        0.006750
      1049         -0.95939518        0.006750
      1050         -0.95939552        0.006750
      1051         -0.95939569        0.006750
      1052         -0.95939639        0.006750
      1053         -0.95939663        0.006750
      1054         -0.95939816        0.006750
      1055         -0.95939924        0.006750
      1056         -0.95940122        0.006750
      1057         -0.95940386        0.006750
      1058         -0.95940596        0.006750
      1059         -0.95940637        0.006750
      1060         -0.95940844        0.006750
      1061         -0.95941255        0.006750
      1062         -0.95941393        0.006750
      1063         -0.95941404        0.006750
      1064         -0.95941535        0.006750
      1065         -0.95941603        0.006750
      1066         -0.95942022        0.006750
      1067         -0.95942136        0.006750
      1068         -0.95942244        0.006750
      1069         -0.95942294        0.006750
      1070         -0.95942409        0.006750
      1071         -0.95942515        0.006750
      1072         -0.95942667        0.006750
      1073         -0.95942771        0.006750
      1074         -0.95942815        0.006750
      1075         -0.95942878        0.006750
      1076         -0.95943235        0.006750
      1077         -0.95943398        0.006750
      1078         -0.95943661        0.006750
      1079         -0.95943667        0.006750
      1080         -0.95943952        0.006750
      1081         -0.95944193        0.006750
      1082         -0.95944357        0.006750
      1083         -0.95944390        0.006750
      1084         -0.95944510        0.006750
      1085         -0.95944528        0.006750
      1086         -0.95945075        0.006750
      1087         -0.95945097        0.006750
      1088         -0.95945100        0.006750
      1089         -0.95945185        0.006750
      1090         -0.95945467        0.006750
      1091         -0.95945722        0.006750
      1092         -0.95945763        0.006750
      1093         -0.95945843        0.006750
      1094         -0.95945889        0.006750
      1095         -0.95945904        0.006750
      1096         -0.95946124        0.006750
      1097         -0.95946460        0.006750
      1098         -0.95946760        0.006750
      1099         -0.95946832        0.006750
      1100         -0.95946910        0.006750
      1101         -0.95946973        0.006750
      1102         -0.95946982        0.006750
      1103         -0.95947062        0.006750
      1104         -0.95947550        0.006750
      1105         -0.95947787        0.006750
      1106         -0.95947902        0.006750
      1107         -0.95947915        0.006750
      1108         -0.95948058        0.006750
      1109         -0.95948823        0.006750
      1110         -0.95948844        0.006750
      1111         -0.95949216        0.006750
      1112         -0.95949341        0.006750
      1113         -0.95949499        0.006750
      1114         -0.95949773        0.006750
      1115         -0.95950459        0.006750
      1116         -0.95950463        0.006750
      1117         -0.95950591        0.006750
      1118         -0.95950692        0.006750
      1119         -0.95951018        0.006750
      1120         -0.95951083        0.006750
      1121         -0.95951085        0.006750
      1122         -0.95951597        0.006750
      1123         -0.95951663        0.006750
      1124         -0.95951912        0.006750
      1125         -0.95952132        0.006750
      1126         -0.95952280        0.006750
      1127         -0.95952328        0.006750
      1128         -0.95952376        0.006750
      1129         -0.95952630        0.006750
      1130         -0.95952703        0.006750
      1131         -0.95952823        0.006750
      1132         -0.95952930        0.006750
      1133         -0.95953193        0.006750
      1134         -0.95953213        0.006750
      1135         -0.95953296        0.006750
      1136         -0.95953416        0.006750
      1137         -0.95953519        0.006750
      1138         -0.95953554        0.006750
      1139         -0.95953726        0.006750
      1140         -0.95953837        0.006750
      1141         -0.95953901        0.006750
      1142         -0.95953979        0.006750
      1143         -0.95954044        0.006750
      1144         -0.95954312        0.006750
      1145         -0.95954402        0.006750
      1146         -0.95954523        0.006750
      1147         -0.95954658        0.006750
      1148         -0.95954882        0.006750
      1149         -0.95954971        0.006750
      1150         -0.95955065        0.006750
      1151         -0.95955173        0.006750
      1152         -0.95955558        0.006750
      1153         -0.95955698        0.006750
      1154         -0.95955787        0.006750
      1155         -0.95955867        0.006750
      1156         -0.95956004        0.006750
      1157         -0.95956237        0.006750
      1158         -0.95956326        0.006750
      1159         -0.95956470        0.006750
      1160         -0.95956489        0.006750
      1161         -0.95956633        0.006750
      1162         -0.95956809        0.006750
      1163         -0.95956866        0.006750
      1164         -0.95957071        0.006750
      1165         -0.95957174        0.006750
      1166         -0.95957476        0.006750
      1167         -0.95957682        0.006750
      1168         -0.95957822        0.006750
      1169         -0.95957830        0.006750
      1170         -0.95957889        0.006750
      1171         -0.95957926        0.006750
      1172         -0.95957947        0.006750
      1173         -0.95958195        0.006750
      1174         -0.95958865        0.006750
      1175         -0.95958993        0.006750
      1176         -0.95959141        0.006750
      1177         -0.95959476        0.006750
      1178         -0.95959871        0.006750
      1179         -0.95959964        0.006750
      1180         -0.95960344        0.006750
      1181         -0.95960529        0.006750
      1182         -0.95960536        0.006750
      1183         -0.95960845        0.006750
      1184         -0.95961036        0.006750
      1185         -0.95961045        0.006750
      1186         -0.95961091        0.006750
      1187         -0.95961328        0.006750
      1188         -0.95961529        0.006750
      1189         -0.95961614        0.006750
      1190         -0.95961877        0.006750
      1191         -0.95962000        0.006750
      1192         -0.95962224        0.006750
      1193         -0.95962312        0.006750
      1194         -0.95962446        0.006750
      1195         -0.95962546        0.006750
      1196         -0.95962646        0.006750
      1197         -0.95962695        0.006750
      1198         -0.95962851        0.006750
      1199         -0.95962898        0.006750
      1200         -0.95963311        0.006750
      1201         -0.95963403        0.006750
      1202         -0.95963438        0.006750
      1203         -0.95963438        0.006750
      1204         -0.95963738        0.006750
      1205         -0.95963977        0.006750
      1206         -0.95964001        0.006750
      1207         -0.95964511        0.006750
      1208         -0.95964675        0.006750
      1209         -0.95964686        0.006750
      1210         -0.95964948        0.006750
      1211         -0.95965265        0.006750
      1212         -0.95965728        0.006750
      1213         -0.95965822        0.006750
      1214         -0.95965911        0.006750
      1215         -0.95965984        0.006750
      1216         -0.95966182        0.006750
      1217         -0.95966210        0.006750
      1218         -0.95966419        0.006750
      1219         -0.95966491        0.006750
      1220         -0.95966587        0.006750
      1221         -0.95966955        0.006750
      1222         -0.95967001        0.006750
      1223         -0.95967449        0.006750
      1224         -0.95967507        0.006750
      1225         -0.95967709        0.006750
      1226         -0.95967751        0.006750
      1227         -0.95967860        0.006750
      1228         -0.95967953        0.006750
      1229         -0.95968092        0.006750
      1230         -0.95968140        0.006750
      1231         -0.95968459        0.006750
      1232         -0.95968538        0.006750
      1233         -0.95968942        0.006750
      1234         -0.95969045        0.006750
      1235         -0.95969472        0.006750
      1236         -0.95969576        0.006750
      1237         -0.95969755        0.006750
      1238         -0.95970463        0.006750
      1239         -0.95970615        0.006750
      1240         -0.95970687        0.006750
      1241         -0.95970795        0.006750
      1242         -0.95971106        0.006750
      1243         -0.95971270        0.006750
      1244         -0.95971386        0.006750
      1245         -0.95971396        0.006750
      1246         -0.95971453        0.006750
      1247         -0.95971483        0.006750
      1248         -0.95971726        0.006750
      1249         -0.95971959        0.006750
      1250         -0.95972087        0.006750
      1251         -0.95972102        0.006750
      1252         -0.95972121        0.006750
      1253         -0.95972382        0.006750
      1254         -0.95972666        0.006750
      1255         -0.95972780        0.006750
      1256         -0.95972953        0.006750
      1257         -0.95973116        0.006750
      1258         -0.95973402        0.006750
      1259         -0.95973476        0.006750
      1260         -0.95973843        0.006750
      1261         -0.95973865        0.006750
      1262         -0.95973929        0.006750
      1263         -0.95973997        0.006250
      1264         -0.95974039        0.006250
      1265         -0.95974152        0.006250
      1266         -0.95974192        0.006250
      1267         -0.95974521        0.006250
      1268         -0.95974738        0.006250
      1269         -0.95974974        0.006250
      1270         -0.95975278        0.006250
      1271         -0.95975342        0.006250
      1272         -0.95975359        0.006250
      1273         -0.95975623        0.006250
      1274         -0.95975809        0.006250
      1275         -0.95975949        0.006250
      1276         -0.95976154        0.006250
      1277         -0.95976236        0.006250
      1278         -0.95976238        0.006250
      1279         -0.95976294        0.006250
      1280         -0.95976368        0.006250
      1281         -0.95976821        0.006250
      1282         -0.95976873        0.006250
      1283         -0.95976953        0.006250
      1284         -0.95977009        0.006250
      1285         -0.95977332        0.006250
      1286         -0.95977340        0.006250
      1287         -0.95977616        0.006250
      1288         -0.95977721        0.006250
      1289         -0.95977956        0.006250
      1290         -0.95978076        0.006250
      1291         -0.95978428        0.006250
      1292         -0.95978449        0.006250
      1293         -0.95978490        0.006250
      1294         -0.95978490        0.006250
      1295         -0.95978517        0.006250
      1296         -0.95978801        0.006250
      1297         -0.95978965        0.006250
      1298         -0.95978985        0.006250
      1299         -0.95979152        0.006250
      1300         -0.95979222        0.006250
      1301         -0.95979403        0.006250
      1302         -0.95979491        0.006250
      1303         -0.95979700        0.006250
      1304         -0.95980117        0.006250
      1305         -0.95980299        0.006250
      1306         -0.95980546        0.006250
      1307         -0.95980845        0.006250
      1308         -0.95980886        0.006250
      1309         -0.95980886        0.006250
      1310         -0.95981141        0.006250
      1311         -0.95981465        0.006250
      1312         -0.95981767        0.006250
      1313         -0.95981812        0.006250
      1314         -0.95982041        0.006250
      1315         -0.95982052        0.006250
      1316         -0.95982294        0.006250
      1317         -0.95982395        0.006250
      1318         -0.95982592        0.006250
      1319         -0.95982611        0.006250
      1320         -0.95982901        0.006250
      1321         -0.95983079        0.006250
      1322         -0.95983142        0.006250
      1323         -0.95983265        0.006250
      1324         -0.95983454        0.006250
      1325         -0.95983716        0.006250
      1326         -0.95983754        0.006250
      1327         -0.95983989        0.006250
      1328         -0.95984107        0.006250
      1329         -0.95984261        0.006250
      1330         -0.95984354        0.006250
      1331         -0.95984600        0.006250
      1332         -0.95984618        0.006250
      1333         -0.95984656        0.006250
      1334         -0.95984908        0.006250
      1335         -0.95984973        0.006250
      1336         -0.95984974        0.006250
      1337         -0.95985045        0.006250
      1338         -0.95985159        0.006250
      1339         -0.95985367        0.006250
      1340         -0.95985871        0.006250
      1341         -0.95985921        0.006250
      1342         -0.95986003        0.006250
      1343         -0.95986366        0.006250
      1344         -0.95986381        0.006250
      1345         -0.95986569        0.006250
      1346         -0.95986876        0.006250
      1347         -0.95987206        0.006250
      1348         -0.95987271        0.006250
      1349         -0.95987577        0.006250
      1350         -0.95987614        0.006250
      1351         -0.95987622        0.006250
      1352         -0.95987636        0.006250
      1353         -0.95988144        0.006250
      1354         -0.95988280        0.006250
      1355         -0.95988343        0.006250
      1356         -0.95988735        0.006250
      1357         -0.95988997        0.006250
      1358         -0.95989368        0.006250
      1359         -0.95989439        0.006250
      1360         -0.95989505        0.006250
      1361         -0.95989546        0.006250
      1362         -0.95989643        0.006250
      1363         -0.95990613        0.006250
      1364         -0.95990676        0.006250
      1365         -0.95990800        0.006250
      1366         -0.95991355        0.006250
      1367         -0.95991627        0.006250
      1368         -0.95991656        0.006250
      1369         -0.95991697        0.006250
      1370         -0.95991981        0.006250
      1371         -0.95992087        0.006250
      1372         -0.95992120        0.006250
      1373         -0.95992350        0.006250
      1374         -0.95992498        0.006250
      1375         -0.95992522        0.006250
      1376         -0.95992580        0.006250
      1377         -0.95992744        0.006250
      1378         -0.95993018        0.006250
      1379         -0.95993038        0.006250
      1380         -0.95993447        0.006250
      1381         -0.95994097        0.006250
      1382         -0.95994482        0.006250
      1383         -0.95994740        0.006250
      1384         -0.95994824        0.006250
      1385         -0.95994827        0.006250
      1386         -0.95995080        0.006250
      1387         -0.95995090        0.006250
      1388         -0.95995347        0.006250
      1389         -0.95995558        0.006250
      1390         -0.95995959        0.006250
      1391         -0.95996245        0.006250
      1392         -0.95996371        0.006250
      1393         -0.95996484        0.006250
      1394         -0.95996529        0.006250
      1395         -0.95996685        0.006250
      1396         -0.95996769        0.006250
      1397         -0.95996996        0.006250
      1398         -0.95997253        0.006250
      1399         -0.95997303        0.006250
      1400         -0.95997436        0.006250
      1401         -0.95997503        0.006250
      1402         -0.95997664        0.006250
      1403         -0.95997837        0.006250
      1404         -0.95997903        0.006250
      1405         -0.95998246        0.006250
      1406         -0.95998305        0.006250
      1407         -0.95998438        0.006250
      1408         -0.95998531        0.006250
      1409         -0.95998645        0.006250
      1410         -0.95999011        0.006250
      1411         -0.95999158        0.006250
      1412         -0.95999569        0.006250
      1413         -0.95999585        0.006250
      1414         -0.95999610        0.006250
      1415         -0.95999618        0.006250
      1416         -0.95999702        0.006250
      1417         -0.95999985        0.006250
      1418         -0.96000049        0.006250
      1419         -0.96000092        0.006250
      1420         -0.96000226        0.006250
      1421         -0.96000239        0.006250
      1422         -0.96000509        0.006250
      1423         -0.96000828        0.006250
      1424         -0.96001010        0.006250
      1425         -0.96001152        0.006250
      1426         -0.96001382        0.006250
      1427         -0.96001405        0.006250
      1428         -0.96001825        0.006250
      1429         -0.96002248        0.006250
      1430         -0.96002349        0.006250
      1431         -0.96002558        0.006250
      1432         -0.96003009        0.006250
      1433         -0.96003012        0.006250
      1434         -0.96003379        0.006250
      1435         -0.96003379        0.006250
      1436         -0.96003450        0.006250
      1437         -0.96003765        0.006250
      1438         -0.96003766        0.006250
      1439         -0.96003814        0.006250
      1440         -0.96004053        0.006250
      1441         -0.96004334        0.006250
      1442         -0.96004844        0.006250
      1443         -0.96005167        0.006250
      1444         -0.96005439        0.006250
      1445         -0.96005556        0.006250
      1446         -0.96005630        0.006250
      1447         -0.96005635        0.006250
      1448         -0.96005783        0.006250
      1449         -0.96005949        0.006250
      1450         -0.96006056        0.006250
      1451         -0.96006165        0.006250
      1452         -0.96006534        0.006250
      1453         -0.96006696        0.006250
      1454         -0.96006806        0.006250
      1455         -0.96006862        0.006250
      1456         -0.96007110        0.006250
      1457         -0.96007197        0.006250
      1458         -0.96007257        0.006250
      1459         -0.96007398        0.006250
      1460         -0.96007463        0.006250
      1461         -0.96007638        0.006250
      1462         -0.96007734        0.006250
      1463         -0.96007817        0.006250
      1464         -0.96008003        0.006250
      1465         -0.96008049        0.006250
      1466         -0.96008188        0.006250
      1467         -0.96008326        0.006250
      1468         -0.96008379        0.006250
      1469         -0.96008589        0.006250
      1470         -0.96008663        0.006250
      1471         -0.96008684        0.006250
      1472         -0.96008889        0.006250
      1473         -0.96008916        0.006250
      1474         -0.96009092        0.006250
      1475         -0.96009106        0.006250
      1476         -0.96009340        0.006250
      1477         -0.96009367        0.006250
      1478         -0.96009424        0.006250
      1479         -0.96009463        0.006250
      1480         -0.96009500        0.006250
      1481         -0.96009534        0.006250
      1482         -0.96009586        0.006250
      1483         -0.96009652        0.006250
      1484         -0.96009920        0.006250
      1485         -0.96009994        0.006250
      1486         -0.96010051        0.006250
      1487         -0.96010129        0.006250
      1488         -0.96010466        0.006250
      1489         -0.96010585        0.006250
      1490         -0.96010626        0.006250
      1491         -0.96010735        0.006250
      1492         -0.96010940        0.006250
      1493         -0.96011350        0.006250
      1494         -0.96011358        0.006250
      1495         -0.96011503        0.006250
      1496         -0.96011604        0.006250
      1497         -0.96011635        0.006250
      1498         -0.96011688        0.006250
      1499         -0.96011731        0.006250
      1500         -0.96011747        0.006250
      1501         -0.96011870        0.006250
      1502         -0.96011940        0.006250
      1503         -0.96012279        0.006250
      1504         -0.96012548        0.006250
      1505         -0.96012990        0.006250
      1506         -0.96013145        0.006250
      1507         -0.96013217        0.006250
      1508         -0.96013327        0.006250
      1509         -0.96013370        0.006250
      1510         -0.96013380        0.006250
      1511         -0.96013619        0.006250
      1512         -0.96014043        0.006250
      1513         -0.96014265        0.006250
      1514         -0.96014281        0.006250
      1515         -0.96014487        0.006250
      1516         -0.96014677        0.006250
      1517         -0.96014744        0.006250
      1518         -0.96014803        0.006250
      1519         -0.96014965        0.006250
      1520         -0.96015193        0.006250
      1521         -0.96015278        0.006250
      1522         -0.96015580        0.006250
      1523         -0.96015710        0.006250
      1524         -0.96015818        0.006250
      1525         -0.96015969        0.006250
      1526         -0.96016216        0.006250
      1527         -0.96016319        0.006250
      1528         -0.96016425        0.006250
      1529         -0.96016555        0.006250
      1530         -0.96016944        0.006250
      1531         -0.96016982        0.006250
      1532         -0.96017281        0.006250
      1533         -0.96017421        0.006250
      1534         -0.96017462        0.006250
      1535         -0.96017548        0.006250
      1536         -0.96017871        0.006250
      1537         -0.96018005        0.006250
      1538         -0.96018205        0.006250
      1539         -0.96018272        0.006250
      1540         -0.96018446        0.006250
      1541         -0.96018615        0.006250
      1542         -0.96018636        0.006250
      1543         -0.96018679        0.006250
      1544         -0.96018689        0.006250
      1545         -0.96018878        0.006250
      1546         -0.96018980        0.006250
      1547         -0.96019023        0.006250
      1548         -0.96019047        0.006250
      1549         -0.96019275        0.006250
      1550         -0.96019524        0.005787
      1551         -0.96019557        0.005787
[...]
                  ----------------------------------------------


 global array: Ca[1:10,1:10],  handle: -981 

                     1                       2                       3                       4                       5                       6  
       ----------------------- ----------------------- ----------------------- ----------------------- ----------------------- -----------------------
   1       0.29161,    0.92550    -0.05874,   -0.22334     0.03957,    0.00528    -0.00282,   -0.01925     0.01816,   -0.01864     0.00999,    0.01132
   2       0.19352,    0.12362     0.78983,    0.54812     0.04313,   -0.04467     0.04703,    0.00873     0.00102,    0.02028    -0.00732,    0.04469
   3      -0.00452,   -0.03872    -0.03538,   -0.05522     0.71810,    0.06599     0.68065,    0.06087    -0.02397,    0.01637    -0.00491,   -0.01590
   4      -0.03069,    0.01365    -0.01686,   -0.03223     0.08648,   -0.67646    -0.09527,    0.71845     0.02479,   -0.00687    -0.01090,   -0.01258
   5      -0.02503,   -0.00081    -0.01373,    0.01076     0.01331,   -0.03075    -0.00467,    0.00024    -0.51880,   -0.41376     0.58159,    0.46498
   6       0.01100,    0.01959     0.03064,    0.03917    -0.01203,   -0.04152     0.01672,    0.01049    -0.38854,   -0.11872    -0.34744,   -0.09893
   7       0.01085,    0.01961     0.01264,   -0.00009    -0.04939,   -0.01108    -0.01107,   -0.00892     0.06630,   -0.35963     0.05908,   -0.36569
   8       0.00911,    0.01926    -0.10900,   -0.01678    -0.04192,   -0.01556    -0.00143,    0.01572    -0.01071,    0.33551    -0.02461,    0.29102
   9       0.02051,    0.01067    -0.00855,    0.02445     0.01077,    0.01399     0.00712,    0.05495     0.21450,    0.24413     0.18397,    0.19481
  10       0.00585,    0.01929    -0.01121,    0.02953     0.02373,    0.03194    -0.03344,    0.00680    -0.16612,   -0.11128    -0.09968,   -0.08923

                     7                       8                       9                      10  
       ----------------------- ----------------------- ----------------------- -----------------------
   1      -0.01851,    0.03068    -0.00452,    0.00369     0.01575,   -0.01362     0.00011,    0.02116
   2       0.04975,   -0.04059     0.05174,   -0.05685     0.01752,    0.03470     0.04845,   -0.02225
   3       0.01306,   -0.02746    -0.02168,    0.01910     0.01349,    0.04443     0.03398,   -0.03124
   4      -0.01445,    0.04479     0.00004,    0.01156     0.04645,    0.02883     0.01939,   -0.02391
   5      -0.02166,   -0.03172     0.02229,    0.01460     0.00494,    0.01069     0.00369,    0.02788
   6      -0.43094,   -0.10756    -0.44581,   -0.09699    -0.52144,   -0.14551     0.01071,   -0.02437
   7       0.10571,   -0.47336    -0.09282,    0.43761    -0.07456,    0.53334    -0.00994,   -0.01217
   8      -0.00772,   -0.50125     0.01171,   -0.57057    -0.02736,    0.45028     0.05686,   -0.05846
   9      -0.29237,   -0.37953     0.30753,    0.35007    -0.28382,   -0.31234    -0.28233,   -0.33696
  10       0.22037,    0.16750    -0.10740,   -0.17252     0.12095,    0.11594    -0.64782,   -0.61017

                   WFN1 Final beta Correlation Function Analysis
                   ---------------------------------------------


 global array: Cb[1:10,1:10],  handle: -980 

                     1                       2                       3                       4                       5                       6  
       ----------------------- ----------------------- ----------------------- ----------------------- ----------------------- -----------------------
   1       0.29161,    0.92550    -0.05874,   -0.22334     0.03957,    0.00528    -0.00282,   -0.01925     0.01816,   -0.01864     0.00999,    0.01132
   2       0.19352,    0.12362     0.78983,    0.54812     0.04313,   -0.04467     0.04703,    0.00873     0.00102,    0.02028    -0.00732,    0.04469
   3      -0.00452,   -0.03872    -0.03538,   -0.05522     0.71810,    0.06599     0.68065,    0.06087    -0.02397,    0.01637    -0.00491,   -0.01590
   4      -0.03069,    0.01365    -0.01686,   -0.03223     0.08648,   -0.67646    -0.09527,    0.71845     0.02479,   -0.00687    -0.01090,   -0.01258
   5      -0.02503,   -0.00081    -0.01373,    0.01076     0.01331,   -0.03075    -0.00467,    0.00024    -0.51880,   -0.41376     0.58159,    0.46498
   6       0.01100,    0.01959     0.03064,    0.03917    -0.01203,   -0.04152     0.01672,    0.01049    -0.38854,   -0.11872    -0.34744,   -0.09893
   7       0.01085,    0.01961     0.01264,   -0.00009    -0.04939,   -0.01108    -0.01107,   -0.00892     0.06630,   -0.35963     0.05908,   -0.36569
   8       0.00911,    0.01926    -0.10900,   -0.01678    -0.04192,   -0.01556    -0.00143,    0.01572    -0.01071,    0.33551    -0.02461,    0.29102
   9       0.02051,    0.01067    -0.00855,    0.02445     0.01077,    0.01399     0.00712,    0.05495     0.21450,    0.24413     0.18397,    0.19481
  10       0.00585,    0.01929    -0.01121,    0.02953     0.02373,    0.03194    -0.03344,    0.00680    -0.16612,   -0.11128    -0.09968,   -0.08923

                     7                       8                       9                      10  
       ----------------------- ----------------------- ----------------------- -----------------------
   1      -0.01851,    0.03068    -0.00452,    0.00369     0.01575,   -0.01362     0.00011,    0.02116
   2       0.04975,   -0.04059     0.05174,   -0.05685     0.01752,    0.03470     0.04845,   -0.02225
   3       0.01306,   -0.02746    -0.02168,    0.01910     0.01349,    0.04443     0.03398,   -0.03124
   4      -0.01445,    0.04479     0.00004,    0.01156     0.04645,    0.02883     0.01939,   -0.02391
   5      -0.02166,   -0.03172     0.02229,    0.01460     0.00494,    0.01069     0.00369,    0.02788
   6      -0.43094,   -0.10756    -0.44581,   -0.09699    -0.52144,   -0.14551     0.01071,   -0.02437
   7       0.10571,   -0.47336    -0.09282,    0.43761    -0.07456,    0.53334    -0.00994,   -0.01217
   8      -0.00772,   -0.50125     0.01171,   -0.57057    -0.02736,    0.45028     0.05686,   -0.05846
   9      -0.29237,   -0.37953     0.30753,    0.35007    -0.28382,   -0.31234    -0.28233,   -0.33696
  10       0.22037,    0.16750    -0.10740,   -0.17252     0.12095,    0.11594    -0.64782,   -0.61017

                     WFN1 Final Alpha Natural Orbital Analysis
                     -----------------------------------------

 Vector    1  Occ=9.415908D-01  E= 0.000000D+00
              MO Center=  1.4D-05,  2.9D-05, -1.6D-04, r^2= 1.6D+00
   Bfn.  Coefficient  Atom+Function         Bfn.  Coefficient  Atom+Function  
  ----- ------------  ---------------      ----- ------------  ---------------
     2      0.448349  1 H  s                  7      0.448218  2 H  s          
     1      0.229004  1 H  s                  6      0.228969  2 H  s          

 Vector    2  Occ=5.273230D-02  E= 0.000000D+00
              MO Center=  1.5D-04, -9.6D-05,  3.7D-05, r^2= 1.9D+00
   Bfn.  Coefficient  Atom+Function         Bfn.  Coefficient  Atom+Function  
  ----- ------------  ---------------      ----- ------------  ---------------
     2     -0.599796  1 H  s                  7      0.598730  2 H  s          
     6      0.308284  2 H  s                  1     -0.306720  1 H  s          

 Vector    3  Occ=1.519485D-03  E= 0.000000D+00
              MO Center= -2.2D-04,  4.9D-04,  1.2D-02, r^2= 2.3D+00
   Bfn.  Coefficient  Atom+Function         Bfn.  Coefficient  Atom+Function  
  ----- ------------  ---------------      ----- ------------  ---------------
     7     -1.011979  2 H  s                  2      0.998508  1 H  s          
     6      0.885074  2 H  s                  1     -0.864278  1 H  s          
     5     -0.144188  1 H  pz                10     -0.119685  2 H  pz         

 Vector    4  Occ=1.128333D-03  E= 0.000000D+00
              MO Center=  7.4D-04,  3.7D-04, -4.8D-03, r^2= 1.7D+00
   Bfn.  Coefficient  Atom+Function         Bfn.  Coefficient  Atom+Function  
  ----- ------------  ---------------      ----- ------------  ---------------
     1     -0.868769  1 H  s                  6     -0.870263  2 H  s          
     7      0.659583  2 H  s                  2      0.651692  1 H  s          
     5     -0.281902  1 H  pz                10      0.250675  2 H  pz         

 Vector    5  Occ=6.271582D-04  E= 0.000000D+00
              MO Center=  1.2D-04, -2.1D-04, -8.5D-03, r^2= 1.3D+00
   Bfn.  Coefficient  Atom+Function         Bfn.  Coefficient  Atom+Function  
  ----- ------------  ---------------      ----- ------------  ---------------
     5      0.649308  1 H  pz                10     -0.651040  2 H  pz         
     1     -0.326610  1 H  s                  6     -0.289235  2 H  s          
     2      0.200549  1 H  s                  7      0.157147  2 H  s          

 Vector    6  Occ=5.048908D-04  E= 0.000000D+00
              MO Center= -1.0D-03,  1.6D-04,  1.9D-03, r^2= 1.1D+00
   Bfn.  Coefficient  Atom+Function         Bfn.  Coefficient  Atom+Function  
  ----- ------------  ---------------      ----- ------------  ---------------
     8      0.695919  2 H  px                 3      0.689857  1 H  px         
     4     -0.148163  1 H  py                 9     -0.124703  2 H  py         

 Vector    7  Occ=5.024373D-04  E= 0.000000D+00
              MO Center= -1.1D-04, -4.6D-04, -2.3D-03, r^2= 1.1D+00
   Bfn.  Coefficient  Atom+Function         Bfn.  Coefficient  Atom+Function  
  ----- ------------  ---------------      ----- ------------  ---------------
     4     -0.695772  1 H  py                 9     -0.690323  2 H  py         
     8     -0.145138  2 H  px                 3     -0.127285  1 H  px         

 Vector    8  Occ=4.537538D-04  E= 0.000000D+00
              MO Center= -2.6D-04, -1.5D-03,  2.2D-03, r^2= 1.1D+00
   Bfn.  Coefficient  Atom+Function         Bfn.  Coefficient  Atom+Function  
  ----- ------------  ---------------      ----- ------------  ---------------
     9      0.695673  2 H  py                 4     -0.690138  1 H  py         
     3     -0.148747  1 H  px                 8      0.123867  2 H  px         
    10      0.056770  2 H  pz                 2      0.030391  1 H  s          
     5      0.027822  1 H  pz                 1     -0.025015  1 H  s          

 Vector    9  Occ=5.344190D-04  E= 0.000000D+00
              MO Center=  3.7D-04, -8.9D-06, -1.8D-03, r^2= 1.1D+00
   Bfn.  Coefficient  Atom+Function         Bfn.  Coefficient  Atom+Function  
  ----- ------------  ---------------      ----- ------------  ---------------
     3     -0.696571  1 H  px                 8      0.691555  2 H  px         
     9     -0.145235  2 H  py                 4      0.127436  1 H  py         

 Vector   10  Occ=4.064274D-04  E= 0.000000D+00
              MO Center=  2.1D-04,  1.2D-03,  9.9D-04, r^2= 1.3D+00
   Bfn.  Coefficient  Atom+Function         Bfn.  Coefficient  Atom+Function  
  ----- ------------  ---------------      ----- ------------  ---------------
    10      0.716022  2 H  pz                 5      0.703235  1 H  pz         
     2      0.400956  1 H  s                  7     -0.375538  2 H  s          
     1     -0.261174  1 H  s                  6      0.227654  2 H  s          
     9     -0.048935  2 H  py                 4      0.034721  1 H  py         


                     WFN1 Final Beta Natural Orbital Analysis
                     ----------------------------------------

 Vector    1  Occ=9.415908D-01  E= 0.000000D+00
              MO Center=  1.4D-05,  2.9D-05, -1.6D-04, r^2= 1.6D+00
   Bfn.  Coefficient  Atom+Function         Bfn.  Coefficient  Atom+Function  
  ----- ------------  ---------------      ----- ------------  ---------------
     2      0.448349  1 H  s                  7      0.448218  2 H  s          
     1      0.229004  1 H  s                  6      0.228969  2 H  s          

 Vector    2  Occ=5.273230D-02  E= 0.000000D+00
              MO Center=  1.5D-04, -9.6D-05,  3.7D-05, r^2= 1.9D+00
   Bfn.  Coefficient  Atom+Function         Bfn.  Coefficient  Atom+Function  
  ----- ------------  ---------------      ----- ------------  ---------------
     2     -0.599796  1 H  s                  7      0.598730  2 H  s          
     6      0.308284  2 H  s                  1     -0.306720  1 H  s          

 Vector    3  Occ=1.519485D-03  E= 0.000000D+00
              MO Center= -2.2D-04,  4.9D-04,  1.2D-02, r^2= 2.3D+00
   Bfn.  Coefficient  Atom+Function         Bfn.  Coefficient  Atom+Function  
  ----- ------------  ---------------      ----- ------------  ---------------
     7     -1.011979  2 H  s                  2      0.998508  1 H  s          
     6      0.885074  2 H  s                  1     -0.864278  1 H  s          
     5     -0.144188  1 H  pz                10     -0.119685  2 H  pz         

 Vector    4  Occ=1.128333D-03  E= 0.000000D+00
              MO Center=  7.4D-04,  3.7D-04, -4.8D-03, r^2= 1.7D+00
   Bfn.  Coefficient  Atom+Function         Bfn.  Coefficient  Atom+Function  
  ----- ------------  ---------------      ----- ------------  ---------------
     1     -0.868769  1 H  s                  6     -0.870263  2 H  s          
     7      0.659583  2 H  s                  2      0.651692  1 H  s          
     5     -0.281902  1 H  pz                10      0.250675  2 H  pz         

 Vector    5  Occ=6.271582D-04  E= 0.000000D+00
              MO Center=  1.2D-04, -2.1D-04, -8.5D-03, r^2= 1.3D+00
   Bfn.  Coefficient  Atom+Function         Bfn.  Coefficient  Atom+Function  
  ----- ------------  ---------------      ----- ------------  ---------------
     5      0.649308  1 H  pz                10     -0.651040  2 H  pz         
     1     -0.326610  1 H  s                  6     -0.289235  2 H  s          
     2      0.200549  1 H  s                  7      0.157147  2 H  s          

 Vector    6  Occ=5.048908D-04  E= 0.000000D+00
              MO Center= -1.0D-03,  1.6D-04,  1.9D-03, r^2= 1.1D+00
   Bfn.  Coefficient  Atom+Function         Bfn.  Coefficient  Atom+Function  
  ----- ------------  ---------------      ----- ------------  ---------------
     8      0.695919  2 H  px                 3      0.689857  1 H  px         
     4     -0.148163  1 H  py                 9     -0.124703  2 H  py         

 Vector    7  Occ=5.024373D-04  E= 0.000000D+00
              MO Center= -1.1D-04, -4.6D-04, -2.3D-03, r^2= 1.1D+00
   Bfn.  Coefficient  Atom+Function         Bfn.  Coefficient  Atom+Function  
  ----- ------------  ---------------      ----- ------------  ---------------
     4     -0.695772  1 H  py                 9     -0.690323  2 H  py         
     8     -0.145138  2 H  px                 3     -0.127285  1 H  px         

 Vector    8  Occ=4.537538D-04  E= 0.000000D+00
              MO Center= -2.6D-04, -1.5D-03,  2.2D-03, r^2= 1.1D+00
   Bfn.  Coefficient  Atom+Function         Bfn.  Coefficient  Atom+Function  
  ----- ------------  ---------------      ----- ------------  ---------------
     9      0.695673  2 H  py                 4     -0.690138  1 H  py         
     3     -0.148747  1 H  px                 8      0.123867  2 H  px         
    10      0.056770  2 H  pz                 2      0.030391  1 H  s          
     5      0.027822  1 H  pz                 1     -0.025015  1 H  s          

 Vector    9  Occ=5.344190D-04  E= 0.000000D+00
              MO Center=  3.7D-04, -8.9D-06, -1.8D-03, r^2= 1.1D+00
   Bfn.  Coefficient  Atom+Function         Bfn.  Coefficient  Atom+Function  
  ----- ------------  ---------------      ----- ------------  ---------------
     3     -0.696571  1 H  px                 8      0.691555  2 H  px         
     9     -0.145235  2 H  py                 4      0.127436  1 H  py         

 Vector   10  Occ=4.064274D-04  E= 0.000000D+00
              MO Center=  2.1D-04,  1.2D-03,  9.9D-04, r^2= 1.3D+00
   Bfn.  Coefficient  Atom+Function         Bfn.  Coefficient  Atom+Function  
  ----- ------------  ---------------      ----- ------------  ---------------
    10      0.716022  2 H  pz                 5      0.703235  1 H  pz         
     2      0.400956  1 H  s                  7     -0.375538  2 H  s          
     1     -0.261174  1 H  s                  6      0.227654  2 H  s          
     9     -0.048935  2 H  py                 4      0.034721  1 H  py         


 Task  times  cpu:     2872.8s     wall:     3464.7s
 Summary of allocated global arrays
-----------------------------------
  No active global arrays



                         GA Statistics for process    0
                         ------------------------------

       create   destroy   get      put      acc     scatter   gather  read&inc
calls:   44       44     9.74e+08 4.18e+05 5.55e+05    0        0       11     
number of processes/call 1.00e+00 1.00e+00 1.00e+00 0.00e+00 0.00e+00
bytes total:             7.79e+11 4.44e+08 5.55e+08 0.00e+00 0.00e+00 8.80e+01
bytes remote:            0.00e+00 0.00e+00 0.00e+00 0.00e+00 0.00e+00 0.00e+00
Max memory consumed for GA by this process: 268000 bytes
MA_summarize_allocated_blocks: starting scan ...
MA_summarize_allocated_blocks: scan completed: 0 heap blocks, 0 stack blocks
MA usage statistics:

	allocation statistics:
					      heap	     stack
					      ----	     -----
	current number of blocks	         0	         0
	maximum number of blocks	        19	        17
	current total bytes		         0	         0
	maximum total bytes		   3205416	  22508616
	maximum total K-bytes		      3206	     22509
	maximum total M-bytes		         4	        23


                                NWChem Input Module
                                -------------------





                                     CITATION
                                     --------
                Please cite the following reference when publishing
                           results obtained with NWChem:

                 M. Valiev, E.J. Bylaska, N. Govind, K. Kowalski,
              T.P. Straatsma, H.J.J. van Dam, D. Wang, J. Nieplocha,
                        E. Apra, T.L. Windus, W.A. de Jong
                 "NWChem: a comprehensive and scalable open-source
                  solution for large scale molecular simulations"
                      Comput. Phys. Commun. 181, 1477 (2010)
                           doi:10.1016/j.cpc.2010.04.018

                                      AUTHORS
                                      -------
          E. Apra, E. J. Bylaska, W. A. de Jong, N. Govind, K. Kowalski,
       T. P. Straatsma, M. Valiev, H. J. J. van Dam, D. Wang, T. L. Windus,
        J. Hammond, J. Autschbach, K. Bhaskaran-Nair, J. Brabec, K. Lopata,
    S. A. Fischer, S. Krishnamoorthy, M. Jacquelin, W. Ma, M. Klemm, O. Villa,
      Y. Chen, V. Anisimov, F. Aquino, S. Hirata, M. T. Hackler, V. Konjkov,
      T. Risthaus, M. Malagoli, A. Marenich, A. Otero-de-la-Roza, J. Mullin,
        P. Nichols, R. Peverati, J. Pittner, Y. Zhao, P.-D. Fan, A. Fonari,
       M. Williamson, R. J. Harrison, J. R. Rehr, M. Dupuis, D. Silverstein,
    D. M. A. Smith, J. Nieplocha, V. Tipparaju, M. Krishnan, B. E. Van Kuiken,
        A. Vazquez-Mayagoitia, L. Jensen, M. Swart, Q. Wu, T. Van Voorhis,
     A. A. Auer, M. Nooijen, L. D. Crosby, E. Brown, G. Cisneros, G. I. Fann,
   H. Fruchtl, J. Garza, K. Hirao, R. A. Kendall, J. A. Nichols, K. Tsemekhman,
    K. Wolinski, J. Anchell, D. E. Bernholdt, P. Borowski, T. Clark, D. Clerc,
   H. Dachsel, M. J. O. Deegan, K. Dyall, D. Elwood, E. Glendening, M. Gutowski,
   A. C. Hess, J. Jaffe, B. G. Johnson, J. Ju, R. Kobayashi, R. Kutteh, Z. Lin,
   R. Littlefield, X. Long, B. Meng, T. Nakajima, S. Niu, L. Pollack, M. Rosing,
   K. Glaesemann, G. Sandrone, M. Stave, H. Taylor, G. Thomas, J. H. van Lenthe,
                               A. T. Wong, Z. Zhang.

 Total times  cpu:     2872.8s     wall:     3464.7s
