 argument  1 = input-wf.nw



============================== echo of input deck ==============================
echo
start wfn1_dat
geometry units au noautoz
  H 0 0 -2.59434600000000000000
  H 0 0  2.59434600000000000000
  symmetry cs
end
basis
  H library 6-31g**
end
set wfn1:input_vectors "atomic"
set wfn1:solver "monte-carlo"
set wfn1:print_error F
set wfn1:t_initial 0.1
#set wfn1:corr_expr "wfn1_mx"
set wfn1:corr_expr "wfn1c"
set wfn1:t_bath 0.0
set wfn1:maxit  20000
task wfn1 energy
================================================================================


                                         
                                         


              Northwest Computational Chemistry Package (NWChem) 6.8
              ------------------------------------------------------


                    Environmental Molecular Sciences Laboratory
                       Pacific Northwest National Laboratory
                                Richland, WA 99352

                              Copyright (c) 1994-2015
                       Pacific Northwest National Laboratory
                            Battelle Memorial Institute

             NWChem is an open-source computational chemistry package
                        distributed under the terms of the
                      Educational Community License (ECL) 2.0
             A copy of the license is included with this distribution
                              in the LICENSE.TXT file

                                  ACKNOWLEDGMENT
                                  --------------

            This software and its documentation were developed at the
            EMSL at Pacific Northwest National Laboratory, a multiprogram
            national laboratory, operated for the U.S. Department of Energy
            by Battelle under Contract Number DE-AC05-76RL01830. Support
            for this work was provided by the Department of Energy Office
            of Biological and Environmental Research, Office of Basic
            Energy Sciences, and the Office of Advanced Scientific Computing.


           Job information
           ---------------

    hostname        = erato
    program         = ../../../bin/LINUX64/nwchem
    date            = Tue Mar  2 08:41:31 2021

    compiled        = Sun_Feb_28_18:02:42_2021
    source          = /home/hvandam/nwchem-1-wfn1
    nwchem branch   = Development
    nwchem revision = nwchem_on_git-124-gad72d19fff205e319ffbbf2bca37a04ded6ad57b
    ga revision     = nwchem_on_git-124-gad72d19
    use scalapack   = F
    input           = input-wf.nw
    prefix          = wfn1_dat.
    data base       = ./wfn1_dat.db
    status          = startup
    nproc           =        1
    time left       =     -1s



           Memory information
           ------------------

    heap     =   13107198 doubles =    100.0 Mbytes
    stack    =   13107195 doubles =    100.0 Mbytes
    global   =   26214400 doubles =    200.0 Mbytes (distinct from heap & stack)
    total    =   52428793 doubles =    400.0 Mbytes
    verify   = yes
    hardfail = no 


           Directory information
           ---------------------

  0 permanent = .
  0 scratch   = .




                                NWChem Input Module
                                -------------------


 Turning off AUTOSYM since
 SYMMETRY directive was detected!



                             Geometry "geometry" -> ""
                             -------------------------

 Output coordinates in a.u. (scale by  1.000000000 to convert to a.u.)

  No.       Tag          Charge          X              Y              Z
 ---- ---------------- ---------- -------------- -------------- --------------
    1 H                    1.0000     0.00000000     0.00000000    -2.59434600
    2 H                    1.0000     0.00000000     0.00000000     2.59434600

      Atomic Mass 
      ----------- 

      H                  1.007825


 Effective nuclear repulsion energy (a.u.)       0.1927267990

            Nuclear Dipole moment (a.u.) 
            ----------------------------
        X                 Y               Z
 ---------------- ---------------- ----------------
     0.0000000000     0.0000000000     0.0000000000

      Symmetry information
      --------------------

 Group name             Cs        
 Group number              2
 Group order               2
 No. of unique centers     1

      Symmetry unique atoms

     1


            XYZ format geometry
            -------------------
     2
 geometry
 H                     0.00000000     0.00000000    -1.37286888
 H                     0.00000000     0.00000000     1.37286888

                      Basis "ao basis" -> "" (cartesian)
                      -----
  H (Hydrogen)
  ------------
            Exponent  Coefficients 
       -------------- ---------------------------------------------------------
  1 S  1.87311370E+01  0.033495
  1 S  2.82539370E+00  0.234727
  1 S  6.40121700E-01  0.813757

  2 S  1.61277800E-01  1.000000

  3 P  1.10000000E+00  1.000000



 Summary of "ao basis" -> "" (cartesian)
 ------------------------------------------------------------------------------
       Tag                 Description            Shells   Functions and Types
 ---------------- ------------------------------  ------  ---------------------
 H                          6-31g**                  3        5   2s1p



                                NWChem WFN1 Module
                                ------------------



          No. of electrons :     2
           Alpha electrons :     1
            Beta electrons :     1
          Charge           :     0
          Spin multiplicity:     1

 HvD: wfn1_inpdft
 HvD: nquad_task =                     1
 HvD: iangquad   =                     0
 HvD: gridtype   = user      
 HvD: leb        =  T
 HvD: radgrid    = murakn    
 HvD: trunc_neigh=  T
 HvD: lssw       =  T
 HvD: whichssw   = erf1    
 HvD: mxnrad     =                     0
 HvD: mxnang     =                     0
 HVD: wfn1: movecs_in  = atomic                                                                                                                                                                                                                                                          
 HVD: wfn1: movecs_out = ./wfn1_dat.movecs                                                                                                                                                                                                                                               

      Superposition of Atomic Density Guess
      -------------------------------------

 Sum of atomic energies:          -0.99646508

      Non-variational initial energy
      ------------------------------

 Total energy =      -0.683119
 1-e energy   =      -1.381914
 2-e energy   =       0.506069
 HOMO         =      -0.218215
 LUMO         =      -0.162529

 iteration              energy           error
 ---------              ------           -----
         0         -0.84051122        0.200000
         1         -0.84740488        0.200000
         2         -0.84986842        0.200000
         3         -0.85473099        0.200000
         4         -0.85546615        0.200000
         5         -0.85742430        0.200000
         6         -0.85755630        0.200000
         7         -0.85787113        0.200000
         8         -0.85791371        0.200000
         9         -0.85893622        0.200000
        10         -0.85917475        0.200000
        11         -0.86085952        0.200000
        12         -0.86127596        0.200000
        13         -0.86139075        0.200000
        14         -0.86245488        0.200000
        15         -0.86250188        0.200000
        16         -0.86251096        0.200000
        17         -0.86314012        0.185175
        18         -0.86413699        0.185175
        19         -0.86429835        0.185175
        20         -0.86435377        0.171449
        21         -0.86441973        0.158740
        22         -0.86452249        0.158740
        23         -0.86456467        0.158740
        24         -0.86475635        0.158740
        25         -0.86488626        0.158740
        26         -0.86491823        0.158740
        27         -0.86504202        0.158740
        28         -0.86534067        0.158740
        29         -0.86539378        0.146973
        30         -0.86605064        0.146973
        31         -0.86607816        0.146973
        32         -0.86625450        0.146973
        33         -0.86628927        0.125992
        34         -0.86631248        0.108006
        35         -0.86641124        0.108006
        36         -0.86676551        0.108006
        37         -0.86697010        0.108006
        38         -0.86704954        0.108006
        39         -0.86739975        0.108006
        40         -0.86759169        0.100000
        41         -0.86765380        0.100000
        42         -0.86771309        0.085724
        43         -0.86778507        0.079370
        44         -0.86785122        0.079370
        45         -0.86802797        0.073487
        46         -0.86804133        0.073487
        47         -0.86804291        0.073487
        48         -0.86810188        0.068040
        49         -0.86813787        0.068040
        50         -0.86814675        0.062996
        51         -0.86815659        0.062996
        52         -0.86817595        0.062996
        53         -0.86822469        0.062996
        54         -0.86822965        0.062996
        55         -0.86823528        0.062996
        56         -0.86824179        0.050000
        57         -0.86827106        0.050000
        58         -0.86829224        0.050000
        59         -0.86830143        0.050000
        60         -0.86831748        0.050000
        61         -0.86834025        0.050000
        62         -0.86834548        0.050000
        63         -0.86840082        0.050000
        64         -0.86840296        0.050000
        65         -0.86842871        0.050000
        66         -0.86849469        0.050000
        67         -0.86852271        0.050000
        68         -0.86853142        0.036743
        69         -0.86858295        0.036743
        70         -0.86858468        0.036743
        71         -0.86858722        0.036743
        72         -0.86860006        0.036743
        73         -0.86863606        0.036743
        74         -0.86865448        0.036743
        75         -0.86866598        0.036743
        76         -0.86866646        0.036743
        77         -0.86867777        0.036743
        78         -0.86868768        0.031498
        79         -0.86869059        0.031498
        80         -0.86870558        0.031498
        81         -0.86875995        0.029163
        82         -0.86876080        0.029163
        83         -0.86877145        0.029163
        84         -0.86877580        0.029163
        85         -0.86877973        0.029163
        86         -0.86878995        0.029163
        87         -0.86880480        0.029163
        88         -0.86882990        0.029163
        89         -0.86884179        0.029163
        90         -0.86888034        0.027001
        91         -0.86888110        0.027001
        92         -0.86888850        0.025000
        93         -0.86889026        0.025000
        94         -0.86889536        0.025000
        95         -0.86890987        0.025000
        96         -0.86891437        0.025000
        97         -0.86892091        0.025000
        98         -0.86893306        0.023147
        99         -0.86894577        0.023147
       100         -0.86895165        0.023147
       101         -0.86895345        0.023147
       102         -0.86895651        0.023147
       103         -0.86896977        0.023147
       104         -0.86897722        0.023147
       105         -0.86897920        0.021431
       106         -0.86898935        0.021431
       107         -0.86900088        0.021431
       108         -0.86901255        0.021431
       109         -0.86903285        0.021431
       110         -0.86903551        0.019843
       111         -0.86905436        0.019843
       112         -0.86906722        0.019843
       113         -0.86907245        0.019843
       114         -0.86908727        0.019843
       115         -0.86909913        0.019843
       116         -0.86910210        0.018372
       117         -0.86911299        0.018372
       118         -0.86912105        0.018372
       119         -0.86912878        0.018372
       120         -0.86915224        0.018372
       121         -0.86915627        0.018372
       122         -0.86915950        0.018372
       123         -0.86916752        0.018372
       124         -0.86918888        0.018372
       125         -0.86919654        0.018372
       126         -0.86920855        0.018372
       127         -0.86921093        0.018372
       128         -0.86922630        0.018372
       129         -0.86923043        0.018372
       130         -0.86923783        0.018372
       131         -0.86923980        0.017010
       132         -0.86925075        0.017010
       133         -0.86925772        0.017010
       134         -0.86925978        0.017010
       135         -0.86925990        0.017010
       136         -0.86926803        0.017010
       137         -0.86928243        0.017010
       138         -0.86928685        0.017010
       139         -0.86929823        0.017010
       140         -0.86930781        0.017010
       141         -0.86931253        0.017010
       142         -0.86932182        0.017010
       143         -0.86932989        0.017010
       144         -0.86933195        0.017010
       145         -0.86933479        0.017010
       146         -0.86933926        0.017010
       147         -0.86934376        0.017010
       148         -0.86934769        0.017010
       149         -0.86935088        0.017010
       150         -0.86935516        0.017010
       151         -0.86935616        0.017010
       152         -0.86936114        0.017010
       153         -0.86936443        0.017010
       154         -0.86936633        0.017010
       155         -0.86937397        0.017010
       156         -0.86938010        0.017010
       157         -0.86939069        0.017010
       158         -0.86939983        0.017010
       159         -0.86940461        0.017010
       160         -0.86940792        0.015749
       161         -0.86941497        0.015749
       162         -0.86941967        0.014582
       163         -0.86942276        0.014582
       164         -0.86943166        0.014582
       165         -0.86944290        0.014582
       166         -0.86945066        0.014582
       167         -0.86946221        0.014582
       168         -0.86947831        0.014582
       169         -0.86948474        0.014582
       170         -0.86948933        0.014582
       171         -0.86949345        0.014582
       172         -0.86949417        0.014582
       173         -0.86950087        0.014582
       174         -0.86950224        0.014582
       175         -0.86951279        0.014582
       176         -0.86951973        0.014582
       177         -0.86952246        0.014582
       178         -0.86952320        0.014582
       179         -0.86953433        0.014582
       180         -0.86953964        0.014582
       181         -0.86955233        0.013501
       182         -0.86955288        0.013501
       183         -0.86955846        0.013501
       184         -0.86956921        0.012500
       185         -0.86957519        0.012500
       186         -0.86958594        0.012500
       187         -0.86959180        0.012500
       188         -0.86959506        0.012500
       189         -0.86959905        0.012500
       190         -0.86960848        0.012500
       191         -0.86960974        0.012500
       192         -0.86961750        0.012500
       193         -0.86962708        0.012500
       194         -0.86962947        0.012500
       195         -0.86963349        0.012500
       196         -0.86963690        0.012500
       197         -0.86963977        0.012500
       198         -0.86964714        0.012500
       199         -0.86965192        0.012500
       200         -0.86965380        0.012500
       201         -0.86966464        0.012500
       202         -0.86966610        0.012500
       203         -0.86967005        0.012500
       204         -0.86967179        0.012500
       205         -0.86968384        0.012500
       206         -0.86968402        0.012500
       207         -0.86969396        0.012500
       208         -0.86969825        0.012500
       209         -0.86970540        0.012500
       210         -0.86970604        0.012500
       211         -0.86970906        0.012500
       212         -0.86971791        0.012500
       213         -0.86971901        0.012500
       214         -0.86972505        0.012500
       215         -0.86972740        0.012500
       216         -0.86973096        0.012500
       217         -0.86974130        0.012500
       218         -0.86974540        0.012500
       219         -0.86974969        0.012500
       220         -0.86975310        0.012500
       221         -0.86976421        0.012500
       222         -0.86976579        0.012500
       223         -0.86977195        0.012500
       224         -0.86977347        0.011573
       225         -0.86978064        0.011573
       226         -0.86978258        0.011573
       227         -0.86978552        0.011573
       228         -0.86978902        0.011573
       229         -0.86978966        0.011573
       230         -0.86979442        0.011573
       231         -0.86980744        0.011573
       232         -0.86980929        0.011573
       233         -0.86981174        0.011573
       234         -0.86982089        0.011573
       235         -0.86982103        0.011573
       236         -0.86982836        0.011573
       237         -0.86983434        0.011573
       238         -0.86983540        0.011573
       239         -0.86984504        0.011573
       240         -0.86984852        0.011573
       241         -0.86984887        0.011573
       242         -0.86986186        0.011573
       243         -0.86986388        0.011573
       244         -0.86987436        0.011573
       245         -0.86987701        0.011573
       246         -0.86987963        0.011573
       247         -0.86988476        0.011573
       248         -0.86988559        0.011573
       249         -0.86989355        0.011573
       250         -0.86990522        0.011573
       251         -0.86990954        0.011573
       252         -0.86991116        0.011573
       253         -0.86991679        0.011573
       254         -0.86991704        0.011573
       255         -0.86991811        0.011573
       256         -0.86992245        0.011573
       257         -0.86993172        0.011573
       258         -0.86993352        0.011573
       259         -0.86993825        0.011573
       260         -0.86994014        0.011573
       261         -0.86994201        0.011573
       262         -0.86994425        0.011573
       263         -0.86995172        0.011573
       264         -0.86995364        0.011573
       265         -0.86995555        0.011573
       266         -0.86997159        0.011573
       267         -0.86997719        0.011573
       268         -0.86997812        0.011573
       269         -0.86998025        0.011573
       270         -0.86998224        0.011573
       271         -0.86998425        0.011573
       272         -0.86998771        0.010716
       273         -0.86998869        0.010716
       274         -0.86999027        0.010716
       275         -0.87000465        0.010716
       276         -0.87000655        0.010716
       277         -0.87001315        0.010716
       278         -0.87001468        0.010716
       279         -0.87001552        0.010716
       280         -0.87001632        0.010716
       281         -0.87001941        0.010716
       282         -0.87002291        0.010716
       283         -0.87003006        0.010716
       284         -0.87003482        0.010716
       285         -0.87003894        0.010716
       286         -0.87005390        0.010716
       287         -0.87005408        0.010716
       288         -0.87005909        0.010716
       289         -0.87006050        0.010716
       290         -0.87006079        0.010716
       291         -0.87006805        0.010716
       292         -0.87007085        0.010716
       293         -0.87007297        0.010716
       294         -0.87007879        0.010716
       295         -0.87008187        0.010716
       296         -0.87008210        0.010716
       297         -0.87008501        0.010716
       298         -0.87008548        0.010716
       299         -0.87008987        0.010716
       300         -0.87009949        0.010716
       301         -0.87010779        0.010716
       302         -0.87011631        0.010716
       303         -0.87013134        0.010716
       304         -0.87013389        0.010716
       305         -0.87013720        0.010716
       306         -0.87014079        0.010716
       307         -0.87014251        0.010716
       308         -0.87015023        0.010716
       309         -0.87015822        0.010716
       310         -0.87016196        0.010716
       311         -0.87016423        0.010716
       312         -0.87017047        0.010716
       313         -0.87017686        0.010716
       314         -0.87018122        0.010716
       315         -0.87018398        0.010716
       316         -0.87018769        0.010716
       317         -0.87019833        0.010716
       318         -0.87020140        0.010716
       319         -0.87020760        0.010716
       320         -0.87021373        0.010716
       321         -0.87021460        0.010716
       322         -0.87022104        0.010716
       323         -0.87022432        0.010716
       324         -0.87022877        0.010716
       325         -0.87023403        0.010716
       326         -0.87023762        0.010716
       327         -0.87024680        0.010716
       328         -0.87024834        0.010716
       329         -0.87025190        0.010716
       330         -0.87025202        0.010716
       331         -0.87025803        0.010716
       332         -0.87026298        0.010716
       333         -0.87026305        0.010716
       334         -0.87026929        0.010716
       335         -0.87028278        0.010716
       336         -0.87028557        0.010716
       337         -0.87029064        0.010716
       338         -0.87029665        0.010716
       339         -0.87030016        0.010716
       340         -0.87030584        0.010716
       341         -0.87031224        0.010716
       342         -0.87031485        0.010716
       343         -0.87031876        0.010716
       344         -0.87032246        0.010716
       345         -0.87032297        0.010716
       346         -0.87032734        0.010716
       347         -0.87032738        0.010716
       348         -0.87032815        0.010716
       349         -0.87032837        0.010716
       350         -0.87033348        0.010716
       351         -0.87033356        0.010716
       352         -0.87034669        0.010716
       353         -0.87035361        0.010716
       354         -0.87035936        0.010716
       355         -0.87036197        0.010716
       356         -0.87036631        0.010716
       357         -0.87036886        0.010716
       358         -0.87037285        0.010716
       359         -0.87037661        0.010716
       360         -0.87037708        0.010716
       361         -0.87038012        0.010716
       362         -0.87038063        0.010716
       363         -0.87038165        0.010716
       364         -0.87038889        0.010716
       365         -0.87039294        0.010716
       366         -0.87039866        0.010716
       367         -0.87039954        0.010716
       368         -0.87040385        0.010716
       369         -0.87041019        0.010716
       370         -0.87041117        0.010716
       371         -0.87041626        0.010716
       372         -0.87041843        0.010716
       373         -0.87042551        0.010716
       374         -0.87042569        0.010716
       375         -0.87042574        0.010716
       376         -0.87043914        0.010716
       377         -0.87045078        0.010716
       378         -0.87045542        0.010716
       379         -0.87046130        0.010716
       380         -0.87047062        0.010716
       381         -0.87047479        0.010716
       382         -0.87047871        0.010716
       383         -0.87048779        0.010716
       384         -0.87048789        0.010716
       385         -0.87049836        0.010716
       386         -0.87050035        0.009921
       387         -0.87050086        0.009921
       388         -0.87050565        0.009921
       389         -0.87050755        0.009921
       390         -0.87050916        0.009921
       391         -0.87051898        0.009921
       392         -0.87052400        0.009921
       393         -0.87052975        0.009921
       394         -0.87053881        0.009921
       395         -0.87054599        0.009921
       396         -0.87054970        0.009921
       397         -0.87055282        0.009921
       398         -0.87055735        0.009921
       399         -0.87056119        0.009921
       400         -0.87056280        0.009921
       401         -0.87057042        0.009921
       402         -0.87057162        0.009921
       403         -0.87057393        0.009921
       404         -0.87057468        0.009921
       405         -0.87057507        0.009921
       406         -0.87057979        0.009921
       407         -0.87058218        0.009921
       408         -0.87058243        0.009921
       409         -0.87058344        0.009921
       410         -0.87058673        0.009921
       411         -0.87059805        0.009921
       412         -0.87060662        0.009921
       413         -0.87061253        0.009921
       414         -0.87061514        0.009921
       415         -0.87061773        0.009921
       416         -0.87062620        0.009921
       417         -0.87062667        0.009921
       418         -0.87063043        0.009921
       419         -0.87063625        0.009921
       420         -0.87064308        0.009921
       421         -0.87064960        0.009921
       422         -0.87065150        0.009921
       423         -0.87065465        0.009921
       424         -0.87065513        0.009921
       425         -0.87066517        0.009921
       426         -0.87067078        0.009921
       427         -0.87067144        0.009921
       428         -0.87067970        0.009921
       429         -0.87068022        0.009921
       430         -0.87068463        0.009921
       431         -0.87068540        0.009921
       432         -0.87069682        0.009921
       433         -0.87070287        0.009921
       434         -0.87070350        0.009921
       435         -0.87070996        0.009921
       436         -0.87071196        0.009921
       437         -0.87071288        0.009921
       438         -0.87072364        0.009921
       439         -0.87072627        0.009921
       440         -0.87072955        0.009921
       441         -0.87073587        0.009921
       442         -0.87074612        0.009921
       443         -0.87074742        0.009921
       444         -0.87075125        0.009921
       445         -0.87075789        0.009921
       446         -0.87076170        0.009921
       447         -0.87076605        0.009921
       448         -0.87076627        0.009921
       449         -0.87076641        0.009921
       450         -0.87076989        0.009921
       451         -0.87077093        0.009921
       452         -0.87077448        0.009921
       453         -0.87077940        0.009921
       454         -0.87078433        0.009921
       455         -0.87078962        0.009921
       456         -0.87079370        0.009921
       457         -0.87079619        0.009921
       458         -0.87079621        0.009921
       459         -0.87079629        0.009921
       460         -0.87080014        0.009921
       461         -0.87080628        0.009921
       462         -0.87080858        0.009921
       463         -0.87081622        0.009921
       464         -0.87082198        0.009921
       465         -0.87083726        0.009921
       466         -0.87084439        0.009921
       467         -0.87084804        0.009921
       468         -0.87084877        0.009921
       469         -0.87085230        0.009921
       470         -0.87086144        0.009921
       471         -0.87086355        0.009921
       472         -0.87086967        0.009921
       473         -0.87087025        0.009921
       474         -0.87087532        0.009921
       475         -0.87087584        0.009921
       476         -0.87088239        0.009921
       477         -0.87088905        0.009921
       478         -0.87089020        0.009921
       479         -0.87089675        0.009921
       480         -0.87089934        0.009921
       481         -0.87089981        0.009921
       482         -0.87090422        0.009921
       483         -0.87090870        0.009921
       484         -0.87091949        0.009921
       485         -0.87092472        0.009921
       486         -0.87092592        0.009921
       487         -0.87092918        0.009921
       488         -0.87093220        0.009921
       489         -0.87093736        0.009921
       490         -0.87093897        0.009921
       491         -0.87094931        0.009921
       492         -0.87095247        0.009921
       493         -0.87095387        0.009921
       494         -0.87095755        0.009921
       495         -0.87095824        0.009921
       496         -0.87096158        0.009921
       497         -0.87096666        0.009921
       498         -0.87096920        0.009921
       499         -0.87097602        0.009921
       500         -0.87098117        0.009921
       501         -0.87098361        0.009921
       502         -0.87098717        0.009921
       503         -0.87098884        0.009921
       504         -0.87099859        0.009921
       505         -0.87100371        0.009921
       506         -0.87101063        0.009921
       507         -0.87101090        0.009921
       508         -0.87101517        0.009921
       509         -0.87102053        0.009921
       510         -0.87102068        0.009921
       511         -0.87102271        0.009921
       512         -0.87102970        0.009921
       513         -0.87104369        0.009921
       514         -0.87104982        0.009921
       515         -0.87105274        0.009921
       516         -0.87105807        0.009921
       517         -0.87105868        0.009921
       518         -0.87107245        0.009921
       519         -0.87107657        0.009921
       520         -0.87108215        0.009921
       521         -0.87109047        0.009921
       522         -0.87109720        0.009921
       523         -0.87110102        0.009921
       524         -0.87110254        0.009921
       525         -0.87111499        0.009921
       526         -0.87111574        0.009921
       527         -0.87111750        0.009921
       528         -0.87112066        0.009921
       529         -0.87112448        0.009921
       530         -0.87113043        0.009921
       531         -0.87113173        0.009921
       532         -0.87113348        0.009921
       533         -0.87114013        0.009921
       534         -0.87114311        0.009921
       535         -0.87114539        0.009921
       536         -0.87115294        0.009921
       537         -0.87115317        0.009921
       538         -0.87116341        0.009921
       539         -0.87116669        0.009921
       540         -0.87116958        0.009921
       541         -0.87117325        0.009921
       542         -0.87117507        0.009921
       543         -0.87117570        0.009921
       544         -0.87118087        0.009921
       545         -0.87118276        0.009921
       546         -0.87119327        0.009921
       547         -0.87119837        0.009921
       548         -0.87120225        0.009921
       549         -0.87120285        0.009921
       550         -0.87120303        0.009921
       551         -0.87121408        0.009921
       552         -0.87122324        0.009921
       553         -0.87123043        0.009921
       554         -0.87123819        0.009921
       555         -0.87124561        0.009921
       556         -0.87125168        0.009921
       557         -0.87125187        0.009921
       558         -0.87125988        0.009921
       559         -0.87126110        0.009921
       560         -0.87126565        0.009921
       561         -0.87127070        0.009921
       562         -0.87127383        0.009921
       563         -0.87127746        0.009921
       564         -0.87128010        0.009921
       565         -0.87128260        0.009921
       566         -0.87128864        0.009921
       567         -0.87129581        0.009921
       568         -0.87129896        0.009921
       569         -0.87130599        0.009921
       570         -0.87131103        0.009921
       571         -0.87131531        0.009921
       572         -0.87131828        0.009921
       573         -0.87132468        0.009921
       574         -0.87132959        0.009921
       575         -0.87133056        0.009921
       576         -0.87133535        0.009921
       577         -0.87134108        0.009921
       578         -0.87135189        0.009921
       579         -0.87136173        0.009921
       580         -0.87137037        0.009921
       581         -0.87137631        0.009921
       582         -0.87137818        0.009921
       583         -0.87137855        0.009921
       584         -0.87138787        0.009921
       585         -0.87138819        0.009921
       586         -0.87139642        0.009921
       587         -0.87140808        0.009921
       588         -0.87140830        0.009921
       589         -0.87141682        0.009921
       590         -0.87141852        0.009921
       591         -0.87142089        0.009921
       592         -0.87142427        0.009921
       593         -0.87142898        0.009921
       594         -0.87142990        0.009921
       595         -0.87143702        0.009921
       596         -0.87143711        0.009921
       597         -0.87143906        0.009921
       598         -0.87144068        0.009921
       599         -0.87144962        0.009921
       600         -0.87145319        0.009921
       601         -0.87145542        0.009921
       602         -0.87145603        0.009921
       603         -0.87145647        0.009921
       604         -0.87146048        0.009921
       605         -0.87146139        0.009921
       606         -0.87146246        0.009921
       607         -0.87146517        0.009921
       608         -0.87147631        0.009921
       609         -0.87148141        0.009921
       610         -0.87148252        0.009921
       611         -0.87148877        0.009921
       612         -0.87149424        0.009921
       613         -0.87149597        0.009921
       614         -0.87150636        0.009921
       615         -0.87150739        0.009921
       616         -0.87150817        0.009921
       617         -0.87150883        0.009921
       618         -0.87151963        0.009921
       619         -0.87151966        0.009921
       620         -0.87152401        0.009921
       621         -0.87152502        0.009921
       622         -0.87152619        0.009921
       623         -0.87152643        0.009921
       624         -0.87153466        0.009921
       625         -0.87154479        0.009186
       626         -0.87154707        0.009186
       627         -0.87155082        0.009186
       628         -0.87155378        0.009186
       629         -0.87155552        0.009186
       630         -0.87155822        0.009186
       631         -0.87156171        0.009186
       632         -0.87157076        0.009186
       633         -0.87157353        0.009186
       634         -0.87158965        0.009186
       635         -0.87159409        0.009186
       636         -0.87160210        0.009186
       637         -0.87160968        0.009186
       638         -0.87161310        0.009186
       639         -0.87162036        0.009186
       640         -0.87162963        0.009186
       641         -0.87163119        0.009186
       642         -0.87163520        0.009186
       643         -0.87164184        0.009186
       644         -0.87164881        0.009186
       645         -0.87165990        0.009186
       646         -0.87166860        0.009186
       647         -0.87167479        0.009186
       648         -0.87167850        0.009186
       649         -0.87168323        0.009186
       650         -0.87168597        0.009186
       651         -0.87169138        0.009186
       652         -0.87169614        0.009186
       653         -0.87170358        0.009186
       654         -0.87171518        0.009186
       655         -0.87171626        0.009186
       656         -0.87171661        0.009186
       657         -0.87172335        0.009186
       658         -0.87173014        0.009186
       659         -0.87173016        0.009186
       660         -0.87173649        0.009186
       661         -0.87173667        0.009186
       662         -0.87174007        0.009186
       663         -0.87174361        0.009186
       664         -0.87175009        0.009186
       665         -0.87175623        0.009186
       666         -0.87176139        0.009186
       667         -0.87176281        0.009186
       668         -0.87177219        0.009186
       669         -0.87177689        0.009186
       670         -0.87178582        0.009186
       671         -0.87178595        0.009186
       672         -0.87178653        0.009186
       673         -0.87178917        0.009186
       674         -0.87180008        0.009186
       675         -0.87181166        0.009186
       676         -0.87181798        0.009186
       677         -0.87182773        0.009186
       678         -0.87183232        0.009186
       679         -0.87183272        0.009186
       680         -0.87183826        0.009186
       681         -0.87183833        0.009186
       682         -0.87184610        0.009186
       683         -0.87184732        0.009186
       684         -0.87185501        0.009186
       685         -0.87186050        0.009186
       686         -0.87186080        0.009186
       687         -0.87186591        0.009186
       688         -0.87187393        0.009186
       689         -0.87188155        0.009186
       690         -0.87188843        0.009186
       691         -0.87189277        0.009186
       692         -0.87189379        0.009186
       693         -0.87189393        0.009186
       694         -0.87190230        0.009186
       695         -0.87190487        0.009186
       696         -0.87190546        0.009186
       697         -0.87190642        0.009186
       698         -0.87190745        0.009186
       699         -0.87190889        0.009186
       700         -0.87191340        0.009186
       701         -0.87191746        0.009186
       702         -0.87191861        0.009186
       703         -0.87191907        0.009186
       704         -0.87192181        0.009186
       705         -0.87192617        0.009186
       706         -0.87192685        0.009186
       707         -0.87193625        0.009186
       708         -0.87193863        0.008505
       709         -0.87194060        0.008505
       710         -0.87194272        0.008505
       711         -0.87194486        0.008505
       712         -0.87194830        0.008505
       713         -0.87195201        0.008505
       714         -0.87195249        0.008505
       715         -0.87196208        0.008505
       716         -0.87196425        0.008505
       717         -0.87196699        0.008505
       718         -0.87197059        0.008505
       719         -0.87197886        0.008505
       720         -0.87198522        0.008505
       721         -0.87199344        0.008505
       722         -0.87199602        0.008505
       723         -0.87199899        0.008505
       724         -0.87200541        0.008505
       725         -0.87200609        0.008505
       726         -0.87200851        0.008505
       727         -0.87201563        0.008505
       728         -0.87201584        0.008505
       729         -0.87201846        0.008505
       730         -0.87202915        0.008505
       731         -0.87203264        0.008505
       732         -0.87203891        0.008505
       733         -0.87203931        0.008505
       734         -0.87204031        0.008505
       735         -0.87204035        0.008505
       736         -0.87204271        0.008505
       737         -0.87204920        0.008505
       738         -0.87205373        0.008505
       739         -0.87205663        0.008505
       740         -0.87205932        0.008505
       741         -0.87206073        0.008505
       742         -0.87206430        0.008505
       743         -0.87206637        0.008505
       744         -0.87206862        0.008505
       745         -0.87207498        0.008505
       746         -0.87208020        0.008505
       747         -0.87208090        0.008505
       748         -0.87208183        0.008505
       749         -0.87208297        0.008505
       750         -0.87208697        0.008505
       751         -0.87209378        0.008505
       752         -0.87209442        0.008505
       753         -0.87209887        0.008505
       754         -0.87211226        0.008505
       755         -0.87211250        0.008505
       756         -0.87212336        0.008505
       757         -0.87212663        0.008505
       758         -0.87212829        0.008505
       759         -0.87212884        0.008505
       760         -0.87212900        0.008505
       761         -0.87212959        0.008505
       762         -0.87213112        0.008505
       763         -0.87213647        0.008505
       764         -0.87213661        0.008505
       765         -0.87213931        0.008505
       766         -0.87214488        0.008505
       767         -0.87215087        0.008505
       768         -0.87215527        0.008505
       769         -0.87215718        0.008505
       770         -0.87215885        0.008505
       771         -0.87215921        0.008505
       772         -0.87215922        0.008505
       773         -0.87216907        0.008505
       774         -0.87217273        0.008505
       775         -0.87218158        0.008505
       776         -0.87218400        0.008505
       777         -0.87218468        0.008505
       778         -0.87218641        0.008505
       779         -0.87218701        0.008505
       780         -0.87219109        0.008505
       781         -0.87219176        0.008505
       782         -0.87219230        0.008505
       783         -0.87219398        0.008505
       784         -0.87219509        0.008505
       785         -0.87219624        0.008505
       786         -0.87219809        0.008505
       787         -0.87220208        0.008505
       788         -0.87221225        0.008505
       789         -0.87221693        0.008505
       790         -0.87222422        0.008505
       791         -0.87223391        0.008505
       792         -0.87224001        0.008505
       793         -0.87224383        0.008505
       794         -0.87224445        0.008505
       795         -0.87224691        0.008505
       796         -0.87224767        0.008505
       797         -0.87225165        0.008505
       798         -0.87226101        0.008505
       799         -0.87226236        0.008505
       800         -0.87226476        0.008505
       801         -0.87226743        0.008505
       802         -0.87227220        0.008505
       803         -0.87227258        0.008505
       804         -0.87227823        0.008505
       805         -0.87228097        0.008505
       806         -0.87228317        0.008505
       807         -0.87229395        0.008505
       808         -0.87230534        0.008505
       809         -0.87230786        0.008505
       810         -0.87232063        0.008505
       811         -0.87232067        0.008505
       812         -0.87232297        0.008505
       813         -0.87232330        0.008505
       814         -0.87232825        0.008505
       815         -0.87232884        0.008505
       816         -0.87232957        0.008505
       817         -0.87233195        0.008505
       818         -0.87233343        0.008505
       819         -0.87233605        0.008505
       820         -0.87233748        0.008505
       821         -0.87234170        0.008505
       822         -0.87234492        0.008505
       823         -0.87235050        0.008505
       824         -0.87235393        0.008505
       825         -0.87236121        0.008505
       826         -0.87236310        0.008505
       827         -0.87236325        0.008505
       828         -0.87236603        0.008505
       829         -0.87236876        0.008505
       830         -0.87238125        0.008505
       831         -0.87238646        0.008505
       832         -0.87239091        0.008505
       833         -0.87239544        0.008505
       834         -0.87239646        0.008505
       835         -0.87239732        0.008505
       836         -0.87240475        0.008505
       837         -0.87241191        0.008505
       838         -0.87241941        0.008505
       839         -0.87242281        0.008505
       840         -0.87242933        0.008505
       841         -0.87242946        0.008505
       842         -0.87243079        0.008505
       843         -0.87243543        0.008505
       844         -0.87243850        0.008505
       845         -0.87244035        0.008505
       846         -0.87244041        0.008505
       847         -0.87244242        0.008505
       848         -0.87244619        0.008505
       849         -0.87245290        0.008505
       850         -0.87246053        0.008505
       851         -0.87246418        0.008505
       852         -0.87246855        0.008505
       853         -0.87247180        0.008505
       854         -0.87247381        0.008505
       855         -0.87247557        0.008505
       856         -0.87248136        0.008505
       857         -0.87248137        0.008505
       858         -0.87248559        0.008505
       859         -0.87248764        0.008505
       860         -0.87249086        0.008505
       861         -0.87249896        0.008505
       862         -0.87250444        0.008505
       863         -0.87251156        0.008505
       864         -0.87251329        0.008505
       865         -0.87251548        0.008505
       866         -0.87252597        0.008505
       867         -0.87252811        0.008505
       868         -0.87253269        0.008505
       869         -0.87253720        0.008505
       870         -0.87253742        0.008505
       871         -0.87253749        0.008505
       872         -0.87253891        0.008505
       873         -0.87254900        0.008505
       874         -0.87255262        0.008505
       875         -0.87255572        0.008505
       876         -0.87255606        0.008505
       877         -0.87256016        0.008505
       878         -0.87257051        0.008505
       879         -0.87257433        0.008505
       880         -0.87257802        0.008505
       881         -0.87257930        0.008505
       882         -0.87258703        0.008505
       883         -0.87259802        0.008505
       884         -0.87260324        0.008505
       885         -0.87260488        0.008505
       886         -0.87261095        0.008505
       887         -0.87262017        0.008505
       888         -0.87262048        0.008505
       889         -0.87262220        0.008505
       890         -0.87262749        0.008505
       891         -0.87263521        0.008505
       892         -0.87264202        0.008505
       893         -0.87264371        0.008505
       894         -0.87264669        0.008505
       895         -0.87264950        0.008505
       896         -0.87265554        0.008505
       897         -0.87266361        0.008505
       898         -0.87266450        0.008505
       899         -0.87267159        0.008505
       900         -0.87267613        0.008505
       901         -0.87268277        0.008505
       902         -0.87268843        0.008505
       903         -0.87268860        0.008505
       904         -0.87269604        0.008505
       905         -0.87269712        0.008505
       906         -0.87270246        0.008505
       907         -0.87270508        0.008505
       908         -0.87270618        0.008505
       909         -0.87270792        0.008505
       910         -0.87270898        0.008505
       911         -0.87271186        0.008505
       912         -0.87271195        0.008505
       913         -0.87271738        0.008505
       914         -0.87272462        0.008505
       915         -0.87272826        0.008505
       916         -0.87273223        0.008505
       917         -0.87273559        0.008505
       918         -0.87273563        0.008505
       919         -0.87274258        0.008505
       920         -0.87274768        0.008505
       921         -0.87275510        0.008505
       922         -0.87275835        0.008505
       923         -0.87276329        0.008505
       924         -0.87276649        0.008505
       925         -0.87277181        0.008505
       926         -0.87277554        0.008505
       927         -0.87277880        0.008505
       928         -0.87278764        0.008505
       929         -0.87279128        0.008505
       930         -0.87279310        0.008505
       931         -0.87280392        0.008505
       932         -0.87280519        0.008505
       933         -0.87280984        0.008505
       934         -0.87281019        0.008505
       935         -0.87281569        0.008505
       936         -0.87282014        0.008505
       937         -0.87282732        0.008505
       938         -0.87283196        0.008505
       939         -0.87283382        0.008505
       940         -0.87284362        0.008505
       941         -0.87284648        0.008505
       942         -0.87284873        0.008505
       943         -0.87285687        0.008505
       944         -0.87285992        0.008505
       945         -0.87286408        0.008505
       946         -0.87286932        0.008505
       947         -0.87286968        0.008505
       948         -0.87287139        0.008505
       949         -0.87287346        0.008505
       950         -0.87287545        0.008505
       951         -0.87288049        0.008505
       952         -0.87289178        0.008505
       953         -0.87289817        0.008505
       954         -0.87289988        0.008505
       955         -0.87290557        0.008505
       956         -0.87290953        0.008505
       957         -0.87291353        0.008505
       958         -0.87291595        0.008505
       959         -0.87291691        0.008505
       960         -0.87292260        0.008505
       961         -0.87292748        0.008505
       962         -0.87292808        0.008505
       963         -0.87293424        0.008505
       964         -0.87293491        0.008505
       965         -0.87294090        0.008505
       966         -0.87294784        0.008505
       967         -0.87295040        0.008505
       968         -0.87295072        0.008505
       969         -0.87295670        0.008505
       970         -0.87296700        0.008505
       971         -0.87296800        0.008505
       972         -0.87297285        0.008505
       973         -0.87297336        0.008505
       974         -0.87297777        0.008505
       975         -0.87297808        0.008505
       976         -0.87298221        0.008505
       977         -0.87298223        0.008505
       978         -0.87298492        0.008505
       979         -0.87298603        0.008505
       980         -0.87299247        0.008505
       981         -0.87300444        0.008505
       982         -0.87300565        0.008505
       983         -0.87301674        0.008505
       984         -0.87302102        0.008505
       985         -0.87302377        0.008505
       986         -0.87302393        0.008505
       987         -0.87302697        0.008505
       988         -0.87303669        0.008505
       989         -0.87304533        0.008505
       990         -0.87304615        0.008505
       991         -0.87304687        0.008505
       992         -0.87305115        0.008505
       993         -0.87305885        0.008505
       994         -0.87306004        0.008505
       995         -0.87306031        0.008505
       996         -0.87306964        0.008505
       997         -0.87307436        0.008505
       998         -0.87307624        0.008505
       999         -0.87307841        0.008505
      1000         -0.87308146        0.008505
      1001         -0.87308600        0.008505
      1002         -0.87308994        0.008505
      1003         -0.87309050        0.008505
      1004         -0.87309249        0.008505
      1005         -0.87309836        0.008505
      1006         -0.87310029        0.008505
      1007         -0.87310235        0.008505
      1008         -0.87310770        0.008505
      1009         -0.87311174        0.008505
      1010         -0.87311392        0.008505
      1011         -0.87311393        0.008505
      1012         -0.87311804        0.008505
      1013         -0.87311863        0.008505
      1014         -0.87312333        0.008505
      1015         -0.87313270        0.008505
      1016         -0.87313312        0.008505
      1017         -0.87313543        0.008505
      1018         -0.87313556        0.008505
      1019         -0.87313843        0.008505
      1020         -0.87313860        0.008505
      1021         -0.87313981        0.008505
      1022         -0.87314332        0.008505
      1023         -0.87314498        0.008505
      1024         -0.87314944        0.008505
      1025         -0.87315944        0.008505
      1026         -0.87316027        0.008505
      1027         -0.87316636        0.008505
      1028         -0.87316984        0.008505
      1029         -0.87317176        0.008505
      1030         -0.87317333        0.008505
      1031         -0.87317831        0.008505
      1032         -0.87318063        0.008505
      1033         -0.87319153        0.008505
      1034         -0.87319363        0.008505
      1035         -0.87319505        0.008505
      1036         -0.87320112        0.008505
      1037         -0.87320762        0.008505
      1038         -0.87321357        0.008505
      1039         -0.87321984        0.008505
      1040         -0.87322118        0.008505
      1041         -0.87322121        0.008505
      1042         -0.87322262        0.008505
      1043         -0.87322399        0.008505
      1044         -0.87322814        0.008505
      1045         -0.87322852        0.008505
      1046         -0.87323192        0.008505
      1047         -0.87323383        0.008505
      1048         -0.87324315        0.008505
      1049         -0.87324415        0.008505
      1050         -0.87324763        0.008505
      1051         -0.87325122        0.008505
      1052         -0.87325372        0.008505
      1053         -0.87325695        0.008505
      1054         -0.87326514        0.008505
      1055         -0.87326667        0.008505
      1056         -0.87326736        0.008505
      1057         -0.87326802        0.008505
      1058         -0.87326890        0.008505
      1059         -0.87326949        0.008505
      1060         -0.87327375        0.008505
      1061         -0.87327597        0.008505
      1062         -0.87327770        0.008505
      1063         -0.87327833        0.008505
      1064         -0.87328740        0.008505
      1065         -0.87329165        0.008505
      1066         -0.87329515        0.008505
      1067         -0.87330068        0.008505
      1068         -0.87330421        0.008505
      1069         -0.87330564        0.008505
      1070         -0.87330645        0.008505
      1071         -0.87331459        0.008505
      1072         -0.87332159        0.008505
      1073         -0.87332512        0.008505
      1074         -0.87332928        0.008505
      1075         -0.87333160        0.008505
      1076         -0.87333684        0.008505
      1077         -0.87334107        0.008505
      1078         -0.87334221        0.008505
      1079         -0.87334232        0.008505
      1080         -0.87334346        0.008505
      1081         -0.87335290        0.008505
      1082         -0.87335683        0.008505
      1083         -0.87336107        0.008505
      1084         -0.87336235        0.008505
      1085         -0.87336661        0.008505
      1086         -0.87337159        0.008505
      1087         -0.87338014        0.008505
      1088         -0.87338628        0.008505
      1089         -0.87338880        0.008505
      1090         -0.87339789        0.008505
      1091         -0.87340714        0.008505
      1092         -0.87340743        0.008505
      1093         -0.87340879        0.008505
      1094         -0.87340896        0.008505
      1095         -0.87341372        0.008505
      1096         -0.87341379        0.008505
      1097         -0.87341895        0.008505
      1098         -0.87342475        0.008505
      1099         -0.87342543        0.008505
      1100         -0.87342814        0.008505
      1101         -0.87342855        0.008505
      1102         -0.87343469        0.008505
      1103         -0.87343636        0.008505
      1104         -0.87343903        0.008505
      1105         -0.87343948        0.008505
      1106         -0.87344173        0.008505
      1107         -0.87344334        0.008505
      1108         -0.87345602        0.008505
      1109         -0.87346182        0.008505
      1110         -0.87346423        0.008505
      1111         -0.87347351        0.008505
      1112         -0.87347404        0.008505
      1113         -0.87347457        0.008505
      1114         -0.87347876        0.008505
      1115         -0.87348297        0.008505
      1116         -0.87348327        0.008505
      1117         -0.87348470        0.008505
      1118         -0.87349525        0.008505
      1119         -0.87349922        0.008505
      1120         -0.87350897        0.008505
      1121         -0.87351606        0.008505
      1122         -0.87352689        0.008505
      1123         -0.87353254        0.008505
      1124         -0.87353958        0.008505
      1125         -0.87354097        0.008505
      1126         -0.87354484        0.008505
      1127         -0.87355061        0.008505
      1128         -0.87355741        0.008505
      1129         -0.87356222        0.008505
      1130         -0.87356491        0.008505
      1131         -0.87356708        0.008505
      1132         -0.87356740        0.008505
      1133         -0.87356814        0.008505
      1134         -0.87357214        0.008505
      1135         -0.87357515        0.008505
      1136         -0.87357798        0.008505
      1137         -0.87358010        0.008505
      1138         -0.87358189        0.008505
      1139         -0.87358815        0.008505
      1140         -0.87358984        0.008505
      1141         -0.87358992        0.008505
      1142         -0.87359024        0.008505
      1143         -0.87359098        0.008505
      1144         -0.87360080        0.008505
      1145         -0.87361617        0.008505
      1146         -0.87362278        0.008505
      1147         -0.87362948        0.008505
      1148         -0.87362998        0.008505
      1149         -0.87363239        0.008505
      1150         -0.87363362        0.008505
      1151         -0.87364249        0.008505
      1152         -0.87364683        0.008505
      1153         -0.87364874        0.008505
      1154         -0.87364976        0.008505
      1155         -0.87365100        0.008505
      1156         -0.87365465        0.008505
      1157         -0.87366010        0.008505
      1158         -0.87366518        0.008505
      1159         -0.87367241        0.008505
      1160         -0.87367584        0.008505
      1161         -0.87367720        0.008505
      1162         -0.87368000        0.008505
      1163         -0.87368525        0.008505
      1164         -0.87368913        0.008505
      1165         -0.87369052        0.008505
      1166         -0.87369873        0.008505
      1167         -0.87369888        0.008505
      1168         -0.87370266        0.008505
      1169         -0.87370520        0.008505
      1170         -0.87371276        0.008505
      1171         -0.87371490        0.008505
      1172         -0.87371862        0.008505
      1173         -0.87372755        0.008505
      1174         -0.87372902        0.008505
      1175         -0.87373206        0.008505
      1176         -0.87374076        0.008505
      1177         -0.87374529        0.008505
      1178         -0.87375476        0.008505
      1179         -0.87375942        0.008505
      1180         -0.87375962        0.008505
      1181         -0.87376801        0.008505
      1182         -0.87377425        0.008505
      1183         -0.87377425        0.008505
      1184         -0.87378077        0.008505
      1185         -0.87378367        0.008505
      1186         -0.87378770        0.008505
      1187         -0.87379520        0.008505
      1188         -0.87379764        0.008505
      1189         -0.87380367        0.008505
      1190         -0.87380448        0.008505
      1191         -0.87380680        0.008505
      1192         -0.87380734        0.008505
      1193         -0.87381040        0.008505
      1194         -0.87381235        0.008505
      1195         -0.87381464        0.008505
      1196         -0.87381471        0.008505
      1197         -0.87382742        0.008505
      1198         -0.87382807        0.008505
      1199         -0.87383680        0.008505
      1200         -0.87383850        0.008505
      1201         -0.87384645        0.008505
      1202         -0.87384851        0.008505
      1203         -0.87384892        0.008505
      1204         -0.87385693        0.008505
      1205         -0.87386107        0.008505
      1206         -0.87386935        0.008505
      1207         -0.87387787        0.008505
      1208         -0.87387817        0.008505
      1209         -0.87388298        0.008505
      1210         -0.87388449        0.008505
      1211         -0.87388629        0.008505
      1212         -0.87388799        0.008505
      1213         -0.87388947        0.008505
      1214         -0.87389119        0.008505
      1215         -0.87389202        0.008505
      1216         -0.87389488        0.008505
      1217         -0.87389507        0.008505
      1218         -0.87389788        0.008505
      1219         -0.87390896        0.008505
      1220         -0.87390921        0.008505
      1221         -0.87391144        0.008505
      1222         -0.87391348        0.008505
      1223         -0.87391419        0.008505
      1224         -0.87391568        0.008505
      1225         -0.87392011        0.008505
      1226         -0.87392181        0.008505
      1227         -0.87392193        0.008505
      1228         -0.87393221        0.008505
      1229         -0.87394358        0.008505
      1230         -0.87394530        0.008505
      1231         -0.87394823        0.008505
      1232         -0.87394882        0.008505
      1233         -0.87395573        0.008505
      1234         -0.87396028        0.008505
      1235         -0.87396455        0.008505
      1236         -0.87396785        0.008505
      1237         -0.87397131        0.008505
      1238         -0.87397510        0.008505
      1239         -0.87397844        0.008505
      1240         -0.87398285        0.008505
      1241         -0.87398571        0.008505
      1242         -0.87399135        0.008505
      1243         -0.87399737        0.008505
      1244         -0.87399890        0.008505
      1245         -0.87399997        0.008505
      1246         -0.87401328        0.008505
      1247         -0.87401484        0.008505
      1248         -0.87401489        0.008505
      1249         -0.87402841        0.008505
      1250         -0.87403502        0.008505
      1251         -0.87404335        0.008505
      1252         -0.87404401        0.008505
      1253         -0.87404568        0.008505
      1254         -0.87405092        0.008505
      1255         -0.87405196        0.008505
      1256         -0.87406327        0.008505
      1257         -0.87406941        0.008505
      1258         -0.87407152        0.008505
      1259         -0.87407898        0.008505
      1260         -0.87409099        0.008505
      1261         -0.87409388        0.008505
      1262         -0.87409622        0.008505
      1263         -0.87410853        0.008505
      1264         -0.87411068        0.008505
      1265         -0.87411107        0.008505
      1266         -0.87411143        0.008505
      1267         -0.87411358        0.008505
      1268         -0.87412045        0.008505
      1269         -0.87412258        0.008505
      1270         -0.87412838        0.008505
      1271         -0.87413082        0.008505
      1272         -0.87413158        0.008505
      1273         -0.87413333        0.008505
      1274         -0.87413469        0.008505
      1275         -0.87413967        0.008505
      1276         -0.87414036        0.008505
      1277         -0.87414142        0.008505
      1278         -0.87414185        0.008505
      1279         -0.87414283        0.008505
      1280         -0.87414739        0.008505
      1281         -0.87415138        0.008505
      1282         -0.87415160        0.008505
      1283         -0.87415546        0.008505
      1284         -0.87416144        0.008505
      1285         -0.87416623        0.008505
      1286         -0.87416623        0.008505
      1287         -0.87416624        0.008505
      1288         -0.87417074        0.008505
      1289         -0.87417377        0.008505
      1290         -0.87418218        0.008505
      1291         -0.87418701        0.008505
      1292         -0.87418890        0.008505
      1293         -0.87419557        0.008505
      1294         -0.87420119        0.008505
      1295         -0.87420277        0.008505
      1296         -0.87420306        0.008505
      1297         -0.87420642        0.008505
      1298         -0.87420830        0.008505
      1299         -0.87421216        0.008505
      1300         -0.87422015        0.008505
      1301         -0.87422662        0.008505
      1302         -0.87423005        0.008505
      1303         -0.87423453        0.008505
      1304         -0.87424505        0.008505
      1305         -0.87424956        0.008505
      1306         -0.87426308        0.008505
      1307         -0.87427118        0.008505
      1308         -0.87427121        0.008505
      1309         -0.87427133        0.008505
      1310         -0.87427458        0.008505
      1311         -0.87427703        0.008505
      1312         -0.87428765        0.008505
      1313         -0.87429699        0.008505
      1314         -0.87429945        0.008505
      1315         -0.87430460        0.008505
      1316         -0.87430927        0.008505
      1317         -0.87431033        0.008505
      1318         -0.87431524        0.008505
      1319         -0.87431764        0.008505
      1320         -0.87432171        0.008505
      1321         -0.87433732        0.008505
      1322         -0.87434140        0.008505
      1323         -0.87434566        0.008505
      1324         -0.87435010        0.008505
      1325         -0.87435551        0.008505
      1326         -0.87436700        0.008505
      1327         -0.87437647        0.008505
      1328         -0.87437840        0.008505
      1329         -0.87437964        0.008505
      1330         -0.87438657        0.008505
      1331         -0.87438715        0.008505
      1332         -0.87438719        0.008505
      1333         -0.87439430        0.008505
      1334         -0.87440414        0.008505
      1335         -0.87441493        0.008505
      1336         -0.87441986        0.008505
      1337         -0.87442844        0.008505
      1338         -0.87443205        0.008505
      1339         -0.87443635        0.008505
      1340         -0.87444409        0.008505
      1341         -0.87444429        0.008505
      1342         -0.87444594        0.008505
      1343         -0.87444915        0.008505
      1344         -0.87446211        0.008505
      1345         -0.87446751        0.008505
      1346         -0.87447602        0.008505
      1347         -0.87447711        0.008505
      1348         -0.87448007        0.008505
      1349         -0.87448035        0.008505
      1350         -0.87448210        0.008505
      1351         -0.87448397        0.008505
      1352         -0.87449279        0.008505
      1353         -0.87450180        0.008505
      1354         -0.87450634        0.008505
      1355         -0.87451496        0.008505
      1356         -0.87451619        0.008505
      1357         -0.87451868        0.008505
      1358         -0.87452447        0.008505
      1359         -0.87452886        0.008505
      1360         -0.87453279        0.008505
      1361         -0.87453521        0.008505
      1362         -0.87453706        0.008505
      1363         -0.87453841        0.008505
      1364         -0.87454040        0.008505
      1365         -0.87454126        0.008505
      1366         -0.87454266        0.008505
      1367         -0.87454267        0.008505
      1368         -0.87454669        0.008505
      1369         -0.87455344        0.008505
      1370         -0.87455616        0.008505
      1371         -0.87455822        0.008505
      1372         -0.87456076        0.008505
      1373         -0.87456289        0.008505
      1374         -0.87456546        0.008505
      1375         -0.87456950        0.008505
      1376         -0.87457401        0.008505
      1377         -0.87458019        0.008505
      1378         -0.87458649        0.008505
      1379         -0.87458969        0.008505
      1380         -0.87459477        0.008505
      1381         -0.87459958        0.008505
      1382         -0.87460544        0.008505
      1383         -0.87461639        0.008505
      1384         -0.87461683        0.008505
      1385         -0.87461698        0.008505
      1386         -0.87462184        0.008505
      1387         -0.87462377        0.008505
      1388         -0.87462405        0.008505
      1389         -0.87463245        0.008505
      1390         -0.87463728        0.008505
      1391         -0.87463804        0.008505
      1392         -0.87464210        0.008505
      1393         -0.87464770        0.008505
      1394         -0.87464906        0.008505
      1395         -0.87465136        0.008505
      1396         -0.87465193        0.008505
      1397         -0.87466092        0.008505
      1398         -0.87466845        0.008505
      1399         -0.87467229        0.008505
      1400         -0.87468253        0.008505
      1401         -0.87468378        0.008505
      1402         -0.87469416        0.008505
      1403         -0.87469619        0.008505
      1404         -0.87470690        0.008505
      1405         -0.87471154        0.008505
      1406         -0.87471451        0.008505
      1407         -0.87471573        0.008505
      1408         -0.87471678        0.007875
      1409         -0.87472361        0.007875
      1410         -0.87472651        0.007875
      1411         -0.87473599        0.007875
      1412         -0.87473895        0.007875
      1413         -0.87474285        0.007875
      1414         -0.87474371        0.007875
      1415         -0.87474557        0.007875
      1416         -0.87475441        0.007875
      1417         -0.87475599        0.007875
      1418         -0.87475699        0.007875
      1419         -0.87476495        0.007875
      1420         -0.87476539        0.007875
      1421         -0.87476933        0.007875
      1422         -0.87477089        0.007875
      1423         -0.87478001        0.007875
      1424         -0.87478161        0.007875
      1425         -0.87478585        0.007875
      1426         -0.87479237        0.007875
      1427         -0.87479560        0.007875
      1428         -0.87479587        0.007875
      1429         -0.87479824        0.007875
      1430         -0.87479900        0.007875
      1431         -0.87479932        0.007875
      1432         -0.87479961        0.007875
      1433         -0.87480364        0.007875
      1434         -0.87480443        0.007875
      1435         -0.87480491        0.007875
      1436         -0.87480591        0.007875
      1437         -0.87480781        0.007875
      1438         -0.87481291        0.007875
      1439         -0.87481994        0.007875
      1440         -0.87482452        0.007875
      1441         -0.87482608        0.007875
      1442         -0.87483326        0.007875
      1443         -0.87483492        0.007875
      1444         -0.87484526        0.007875
      1445         -0.87484571        0.007875
      1446         -0.87484604        0.007875
      1447         -0.87485146        0.007875
      1448         -0.87485194        0.007875
      1449         -0.87486005        0.007875
      1450         -0.87486674        0.007875
      1451         -0.87486707        0.007875
      1452         -0.87486950        0.007875
      1453         -0.87487199        0.007875
      1454         -0.87488234        0.007875
      1455         -0.87488310        0.007875
      1456         -0.87488452        0.007875
      1457         -0.87488544        0.007875
      1458         -0.87488813        0.007875
      1459         -0.87489721        0.007875
      1460         -0.87489868        0.007875
      1461         -0.87490358        0.007875
      1462         -0.87490430        0.007875
      1463         -0.87490506        0.007875
      1464         -0.87490919        0.007875
      1465         -0.87491136        0.007875
      1466         -0.87491299        0.007875
      1467         -0.87491637        0.007875
      1468         -0.87491739        0.007875
      1469         -0.87491917        0.007875
      1470         -0.87491960        0.007875
      1471         -0.87492238        0.007875
      1472         -0.87492778        0.007875
      1473         -0.87493300        0.007875
      1474         -0.87493750        0.007875
      1475         -0.87494377        0.007875
      1476         -0.87494768        0.007875
      1477         -0.87495281        0.007875
      1478         -0.87495406        0.007875
      1479         -0.87495587        0.007875
      1480         -0.87495598        0.007875
      1481         -0.87496657        0.007875
      1482         -0.87496901        0.007875
      1483         -0.87496928        0.007875
      1484         -0.87497035        0.007875
      1485         -0.87497068        0.007875
      1486         -0.87497101        0.007875
      1487         -0.87497731        0.007875
      1488         -0.87497850        0.007875
      1489         -0.87498801        0.007875
      1490         -0.87499023        0.007875
      1491         -0.87499265        0.007875
      1492         -0.87499538        0.007875
      1493         -0.87499741        0.007875
      1494         -0.87500005        0.007875
      1495         -0.87500065        0.007875
      1496         -0.87500258        0.007875
      1497         -0.87500772        0.007875
      1498         -0.87500835        0.007875
      1499         -0.87500839        0.007875
      1500         -0.87500955        0.007875
      1501         -0.87501200        0.007875
      1502         -0.87501517        0.007875
      1503         -0.87502160        0.007875
      1504         -0.87502479        0.007875
      1505         -0.87502799        0.007875
      1506         -0.87503517        0.007875
      1507         -0.87503914        0.007875
      1508         -0.87503964        0.007875
      1509         -0.87504250        0.007875
      1510         -0.87504931        0.007875
      1511         -0.87504965        0.007875
      1512         -0.87505659        0.007875
      1513         -0.87506069        0.007875
      1514         -0.87507033        0.007875
      1515         -0.87507137        0.007875
      1516         -0.87507355        0.007875
      1517         -0.87507592        0.007875
      1518         -0.87507829        0.007875
      1519         -0.87508235        0.007875
      1520         -0.87508431        0.007875
      1521         -0.87508832        0.007875
      1522         -0.87509011        0.007875
      1523         -0.87509156        0.007875
      1524         -0.87509646        0.007875
      1525         -0.87510098        0.007875
      1526         -0.87510912        0.007875
      1527         -0.87511013        0.007875
      1528         -0.87511266        0.007875
      1529         -0.87511722        0.007875
      1530         -0.87511990        0.007875
      1531         -0.87512207        0.007875
      1532         -0.87513066        0.007875
      1533         -0.87513087        0.007875
      1534         -0.87513137        0.007875
      1535         -0.87514022        0.007875
      1536         -0.87514145        0.007875
      1537         -0.87514415        0.007875
      1538         -0.87514840        0.007875
      1539         -0.87515554        0.007875
      1540         -0.87515955        0.007875
      1541         -0.87516583        0.007875
      1542         -0.87516711        0.007875
      1543         -0.87517614        0.007875
      1544         -0.87517824        0.007875
      1545         -0.87518194        0.007875
      1546         -0.87518730        0.007875
      1547         -0.87519397        0.007875
      1548         -0.87520322        0.007875
      1549         -0.87520939        0.007875
      1550         -0.87521419        0.007875
      1551         -0.87521683        0.007875
[...]
                  ----------------------------------------------


 global array: Ca[1:10,1:10],  handle: -981 

                     1                       2                       3                       4                       5                       6  
       ----------------------- ----------------------- ----------------------- ----------------------- ----------------------- -----------------------
   1      -0.77489,   -0.33188    -0.48963,   -0.19524     0.02615,   -0.05449     0.02876,    0.03302    -0.01289,    0.00577     0.03518,   -0.02672
   2      -0.45429,    0.26365     0.71689,   -0.44497    -0.02932,   -0.01084     0.01200,   -0.04838    -0.02695,   -0.01402     0.01269,   -0.06039
   3      -0.05713,   -0.02978    -0.03405,    0.02263     0.04755,    0.83933    -0.01615,   -0.52581    -0.02088,   -0.04675    -0.00663,    0.02968
   4       0.05396,    0.00462    -0.01475,   -0.02660     0.41516,   -0.32864     0.66642,   -0.51613     0.01626,    0.01793     0.01704,   -0.00132
   5      -0.02933,   -0.01499     0.02141,   -0.00475    -0.02061,   -0.02431    -0.03497,    0.00293    -0.25231,    0.34476    -0.28249,    0.29675
   6       0.01685,    0.02802     0.02486,   -0.00273    -0.01348,    0.03155    -0.01044,   -0.04826     0.33106,    0.25306     0.30079,    0.22890
   7      -0.03259,   -0.00662     0.01251,   -0.02416     0.01244,    0.00154    -0.02288,   -0.01679     0.11534,    0.41750     0.14665,    0.34658
   8      -0.01548,    0.02844     0.03400,    0.00065    -0.00391,   -0.02868    -0.00898,    0.02605    -0.06261,   -0.32329     0.09562,    0.40805
   9      -0.02694,   -0.01856     0.00297,   -0.04606     0.06943,    0.01355    -0.02739,    0.03763     0.43948,    0.00721    -0.43849,   -0.00718
  10       0.03212,   -0.00329    -0.03954,    0.03019     0.00608,   -0.00661     0.00510,    0.03058    -0.22743,    0.31391     0.25818,   -0.32563

                     7                       8                       9                      10  
       ----------------------- ----------------------- ----------------------- -----------------------
   1       0.02429,    0.01328    -0.01797,   -0.00926    -0.00721,   -0.03955    -0.03200,    0.00161
   2      -0.01873,    0.00625     0.02431,   -0.02111     0.01274,    0.03035    -0.02095,   -0.03210
   3      -0.01444,    0.04630     0.00340,   -0.01650     0.01398,    0.05267     0.03814,   -0.00983
   4      -0.01191,    0.02447     0.01204,    0.04333    -0.01906,   -0.00506     0.00933,    0.03414
   5      -0.26376,    0.39039    -0.37288,    0.45069    -0.20415,    0.19958     0.00808,   -0.00970
   6      -0.00103,    0.00283    -0.24926,   -0.19351    -0.39484,   -0.36969    -0.40943,   -0.34407
   7      -0.19389,   -0.48832    -0.11237,   -0.26094     0.07296,    0.27703     0.13722,    0.45857
   8       0.08135,    0.50495    -0.02690,   -0.31412    -0.07539,   -0.28021     0.11741,    0.50313
   9       0.01566,   -0.03161     0.25718,   -0.05499    -0.56990,    0.01429     0.45599,   -0.02778
  10      -0.29024,    0.38812     0.36009,   -0.41900    -0.20548,    0.29391    -0.02664,   -0.05540

                   WFN1 Final beta Correlation Function Analysis
                   ---------------------------------------------


 global array: Cb[1:10,1:10],  handle: -980 

                     1                       2                       3                       4                       5                       6  
       ----------------------- ----------------------- ----------------------- ----------------------- ----------------------- -----------------------
   1      -0.77489,   -0.33188    -0.48963,   -0.19524     0.02615,   -0.05449     0.02876,    0.03302    -0.01289,    0.00577     0.03518,   -0.02672
   2      -0.45429,    0.26365     0.71689,   -0.44497    -0.02932,   -0.01084     0.01200,   -0.04838    -0.02695,   -0.01402     0.01269,   -0.06039
   3      -0.05713,   -0.02978    -0.03405,    0.02263     0.04755,    0.83933    -0.01615,   -0.52581    -0.02088,   -0.04675    -0.00663,    0.02968
   4       0.05396,    0.00462    -0.01475,   -0.02660     0.41516,   -0.32864     0.66642,   -0.51613     0.01626,    0.01793     0.01704,   -0.00132
   5      -0.02933,   -0.01499     0.02141,   -0.00475    -0.02061,   -0.02431    -0.03497,    0.00293    -0.25231,    0.34476    -0.28249,    0.29675
   6       0.01685,    0.02802     0.02486,   -0.00273    -0.01348,    0.03155    -0.01044,   -0.04826     0.33106,    0.25306     0.30079,    0.22890
   7      -0.03259,   -0.00662     0.01251,   -0.02416     0.01244,    0.00154    -0.02288,   -0.01679     0.11534,    0.41750     0.14665,    0.34658
   8      -0.01548,    0.02844     0.03400,    0.00065    -0.00391,   -0.02868    -0.00898,    0.02605    -0.06261,   -0.32329     0.09562,    0.40805
   9      -0.02694,   -0.01856     0.00297,   -0.04606     0.06943,    0.01355    -0.02739,    0.03763     0.43948,    0.00721    -0.43849,   -0.00718
  10       0.03212,   -0.00329    -0.03954,    0.03019     0.00608,   -0.00661     0.00510,    0.03058    -0.22743,    0.31391     0.25818,   -0.32563

                     7                       8                       9                      10  
       ----------------------- ----------------------- ----------------------- -----------------------
   1       0.02429,    0.01328    -0.01797,   -0.00926    -0.00721,   -0.03955    -0.03200,    0.00161
   2      -0.01873,    0.00625     0.02431,   -0.02111     0.01274,    0.03035    -0.02095,   -0.03210
   3      -0.01444,    0.04630     0.00340,   -0.01650     0.01398,    0.05267     0.03814,   -0.00983
   4      -0.01191,    0.02447     0.01204,    0.04333    -0.01906,   -0.00506     0.00933,    0.03414
   5      -0.26376,    0.39039    -0.37288,    0.45069    -0.20415,    0.19958     0.00808,   -0.00970
   6      -0.00103,    0.00283    -0.24926,   -0.19351    -0.39484,   -0.36969    -0.40943,   -0.34407
   7      -0.19389,   -0.48832    -0.11237,   -0.26094     0.07296,    0.27703     0.13722,    0.45857
   8       0.08135,    0.50495    -0.02690,   -0.31412    -0.07539,   -0.28021     0.11741,    0.50313
   9       0.01566,   -0.03161     0.25718,   -0.05499    -0.56990,    0.01429     0.45599,   -0.02778
  10      -0.29024,    0.38812     0.36009,   -0.41900    -0.20548,    0.29391    -0.02664,   -0.05540

                     WFN1 Final Alpha Natural Orbital Analysis
                     -----------------------------------------

 Vector    1  Occ=7.105993D-01  E= 0.000000D+00
              MO Center= -9.5D-07, -3.3D-06, -5.1D-05, r^2= 2.7D+00
   Bfn.  Coefficient  Atom+Function         Bfn.  Coefficient  Atom+Function  
  ----- ------------  ---------------      ----- ------------  ---------------
     2     -0.513811  1 H  s                  7     -0.513781  2 H  s          
     1     -0.223669  1 H  s                  6     -0.223672  2 H  s          

 Vector    2  Occ=2.758962D-01  E= 0.000000D+00
              MO Center= -3.0D-06,  1.2D-05,  4.1D-05, r^2= 2.9D+00
   Bfn.  Coefficient  Atom+Function         Bfn.  Coefficient  Atom+Function  
  ----- ------------  ---------------      ----- ------------  ---------------
     2     -0.525102  1 H  s                  7      0.525142  2 H  s          
     1     -0.271363  1 H  s                  6      0.271341  2 H  s          

 Vector    3  Occ=4.150816D-03  E= 0.000000D+00
              MO Center=  9.0D-04,  3.7D-04,  1.1D-03, r^2= 2.8D+00
   Bfn.  Coefficient  Atom+Function         Bfn.  Coefficient  Atom+Function  
  ----- ------------  ---------------      ----- ------------  ---------------
     1      0.894135  1 H  s                  6      0.894270  2 H  s          
     2     -0.705893  1 H  s                  7     -0.706057  2 H  s          

 Vector    4  Occ=2.932770D-03  E= 0.000000D+00
              MO Center=  1.7D-03, -1.1D-04, -1.9D-04, r^2= 3.3D+00
   Bfn.  Coefficient  Atom+Function         Bfn.  Coefficient  Atom+Function  
  ----- ------------  ---------------      ----- ------------  ---------------
     1     -0.923098  1 H  s                  6      0.922948  2 H  s          
     2      0.876870  1 H  s                  7     -0.876672  2 H  s          

 Vector    5  Occ=1.084752D-03  E= 0.000000D+00
              MO Center= -5.9D-04,  2.3D-04, -1.9D-05, r^2= 2.2D+00
   Bfn.  Coefficient  Atom+Function         Bfn.  Coefficient  Atom+Function  
  ----- ------------  ---------------      ----- ------------  ---------------
     3     -0.675079  1 H  px                 8     -0.654996  2 H  px         
     9      0.262109  2 H  py                 4      0.207101  1 H  py         
    10     -0.047404  2 H  pz                 5      0.037101  1 H  pz         

 Vector    6  Occ=1.069094D-03  E= 0.000000D+00
              MO Center= -2.3D-04, -6.3D-04, -5.7D-05, r^2= 2.2D+00
   Bfn.  Coefficient  Atom+Function         Bfn.  Coefficient  Atom+Function  
  ----- ------------  ---------------      ----- ------------  ---------------
     9     -0.669704  2 H  py                 4     -0.661667  1 H  py         
     3     -0.245648  1 H  px                 8     -0.223671  2 H  px         
     5     -0.042519  1 H  pz                10     -0.038236  2 H  pz         

 Vector    7  Occ=1.105765D-03  E= 0.000000D+00
              MO Center= -1.5D-04, -4.4D-04,  6.0D-05, r^2= 2.2D+00
   Bfn.  Coefficient  Atom+Function         Bfn.  Coefficient  Atom+Function  
  ----- ------------  ---------------      ----- ------------  ---------------
     4     -0.676069  1 H  py                 9      0.655665  2 H  py         
     8      0.263886  2 H  px                 3     -0.206338  1 H  px         

 Vector    8  Occ=1.048281D-03  E= 0.000000D+00
              MO Center= -1.5D-03,  5.2D-04, -4.2D-06, r^2= 2.2D+00
   Bfn.  Coefficient  Atom+Function         Bfn.  Coefficient  Atom+Function  
  ----- ------------  ---------------      ----- ------------  ---------------
     8     -0.670745  2 H  px                 3      0.662118  1 H  px         
     4     -0.247193  1 H  py                 9      0.223291  2 H  py         

 Vector    9  Occ=1.070169D-03  E= 0.000000D+00
              MO Center= -9.5D-05,  2.5D-05, -7.2D-04, r^2= 2.2D+00
   Bfn.  Coefficient  Atom+Function         Bfn.  Coefficient  Atom+Function  
  ----- ------------  ---------------      ----- ------------  ---------------
     5      0.706048  1 H  pz                10     -0.704892  2 H  pz         
     7     -0.041465  2 H  s                  3      0.040763  1 H  px         
     9     -0.037989  2 H  py                 8      0.036038  2 H  px         
     2     -0.035692  1 H  s                  6      0.035346  2 H  s          
     1      0.029290  1 H  s          

 Vector   10  Occ=1.042761D-03  E= 0.000000D+00
              MO Center= -6.8D-06,  3.2D-05, -1.7D-04, r^2= 2.2D+00
   Bfn.  Coefficient  Atom+Function         Bfn.  Coefficient  Atom+Function  
  ----- ------------  ---------------      ----- ------------  ---------------
     5      0.705199  1 H  pz                10      0.706142  2 H  pz         
     2      0.052509  1 H  s                  7     -0.048633  2 H  s          
     1     -0.044580  1 H  s                  6      0.039704  2 H  s          
     9     -0.039715  2 H  py                 3     -0.034986  1 H  px         
     4     -0.032759  1 H  py         


                     WFN1 Final Beta Natural Orbital Analysis
                     ----------------------------------------

 Vector    1  Occ=7.105993D-01  E= 0.000000D+00
              MO Center= -9.5D-07, -3.3D-06, -5.1D-05, r^2= 2.7D+00
   Bfn.  Coefficient  Atom+Function         Bfn.  Coefficient  Atom+Function  
  ----- ------------  ---------------      ----- ------------  ---------------
     2     -0.513811  1 H  s                  7     -0.513781  2 H  s          
     1     -0.223669  1 H  s                  6     -0.223672  2 H  s          

 Vector    2  Occ=2.758962D-01  E= 0.000000D+00
              MO Center= -3.0D-06,  1.2D-05,  4.1D-05, r^2= 2.9D+00
   Bfn.  Coefficient  Atom+Function         Bfn.  Coefficient  Atom+Function  
  ----- ------------  ---------------      ----- ------------  ---------------
     2     -0.525102  1 H  s                  7      0.525142  2 H  s          
     1     -0.271363  1 H  s                  6      0.271341  2 H  s          

 Vector    3  Occ=4.150816D-03  E= 0.000000D+00
              MO Center=  9.0D-04,  3.7D-04,  1.1D-03, r^2= 2.8D+00
   Bfn.  Coefficient  Atom+Function         Bfn.  Coefficient  Atom+Function  
  ----- ------------  ---------------      ----- ------------  ---------------
     1      0.894135  1 H  s                  6      0.894270  2 H  s          
     2     -0.705893  1 H  s                  7     -0.706057  2 H  s          

 Vector    4  Occ=2.932770D-03  E= 0.000000D+00
              MO Center=  1.7D-03, -1.1D-04, -1.9D-04, r^2= 3.3D+00
   Bfn.  Coefficient  Atom+Function         Bfn.  Coefficient  Atom+Function  
  ----- ------------  ---------------      ----- ------------  ---------------
     1     -0.923098  1 H  s                  6      0.922948  2 H  s          
     2      0.876870  1 H  s                  7     -0.876672  2 H  s          

 Vector    5  Occ=1.084752D-03  E= 0.000000D+00
              MO Center= -5.9D-04,  2.3D-04, -1.9D-05, r^2= 2.2D+00
   Bfn.  Coefficient  Atom+Function         Bfn.  Coefficient  Atom+Function  
  ----- ------------  ---------------      ----- ------------  ---------------
     3     -0.675079  1 H  px                 8     -0.654996  2 H  px         
     9      0.262109  2 H  py                 4      0.207101  1 H  py         
    10     -0.047404  2 H  pz                 5      0.037101  1 H  pz         

 Vector    6  Occ=1.069094D-03  E= 0.000000D+00
              MO Center= -2.3D-04, -6.3D-04, -5.7D-05, r^2= 2.2D+00
   Bfn.  Coefficient  Atom+Function         Bfn.  Coefficient  Atom+Function  
  ----- ------------  ---------------      ----- ------------  ---------------
     9     -0.669704  2 H  py                 4     -0.661667  1 H  py         
     3     -0.245648  1 H  px                 8     -0.223671  2 H  px         
     5     -0.042519  1 H  pz                10     -0.038236  2 H  pz         

 Vector    7  Occ=1.105765D-03  E= 0.000000D+00
              MO Center= -1.5D-04, -4.4D-04,  6.0D-05, r^2= 2.2D+00
   Bfn.  Coefficient  Atom+Function         Bfn.  Coefficient  Atom+Function  
  ----- ------------  ---------------      ----- ------------  ---------------
     4     -0.676069  1 H  py                 9      0.655665  2 H  py         
     8      0.263886  2 H  px                 3     -0.206338  1 H  px         

 Vector    8  Occ=1.048281D-03  E= 0.000000D+00
              MO Center= -1.5D-03,  5.2D-04, -4.2D-06, r^2= 2.2D+00
   Bfn.  Coefficient  Atom+Function         Bfn.  Coefficient  Atom+Function  
  ----- ------------  ---------------      ----- ------------  ---------------
     8     -0.670745  2 H  px                 3      0.662118  1 H  px         
     4     -0.247193  1 H  py                 9      0.223291  2 H  py         

 Vector    9  Occ=1.070169D-03  E= 0.000000D+00
              MO Center= -9.5D-05,  2.5D-05, -7.2D-04, r^2= 2.2D+00
   Bfn.  Coefficient  Atom+Function         Bfn.  Coefficient  Atom+Function  
  ----- ------------  ---------------      ----- ------------  ---------------
     5      0.706048  1 H  pz                10     -0.704892  2 H  pz         
     7     -0.041465  2 H  s                  3      0.040763  1 H  px         
     9     -0.037989  2 H  py                 8      0.036038  2 H  px         
     2     -0.035692  1 H  s                  6      0.035346  2 H  s          
     1      0.029290  1 H  s          

 Vector   10  Occ=1.042761D-03  E= 0.000000D+00
              MO Center= -6.8D-06,  3.2D-05, -1.7D-04, r^2= 2.2D+00
   Bfn.  Coefficient  Atom+Function         Bfn.  Coefficient  Atom+Function  
  ----- ------------  ---------------      ----- ------------  ---------------
     5      0.705199  1 H  pz                10      0.706142  2 H  pz         
     2      0.052509  1 H  s                  7     -0.048633  2 H  s          
     1     -0.044580  1 H  s                  6      0.039704  2 H  s          
     9     -0.039715  2 H  py                 3     -0.034986  1 H  px         
     4     -0.032759  1 H  py         


 Task  times  cpu:     3864.4s     wall:     4534.9s
 Summary of allocated global arrays
-----------------------------------
  No active global arrays



                         GA Statistics for process    0
                         ------------------------------

       create   destroy   get      put      acc     scatter   gather  read&inc
calls:   44       44     1.11e+09 4.76e+05 6.33e+05    0        0       11     
number of processes/call 1.00e+00 1.00e+00 1.00e+00 0.00e+00 0.00e+00
bytes total:             8.89e+11 5.06e+08 6.33e+08 0.00e+00 0.00e+00 8.80e+01
bytes remote:            0.00e+00 0.00e+00 0.00e+00 0.00e+00 0.00e+00 0.00e+00
Max memory consumed for GA by this process: 268000 bytes
MA_summarize_allocated_blocks: starting scan ...
MA_summarize_allocated_blocks: scan completed: 0 heap blocks, 0 stack blocks
MA usage statistics:

	allocation statistics:
					      heap	     stack
					      ----	     -----
	current number of blocks	         0	         0
	maximum number of blocks	        19	        17
	current total bytes		         0	         0
	maximum total bytes		   3205432	  22508664
	maximum total K-bytes		      3206	     22509
	maximum total M-bytes		         4	        23


                                NWChem Input Module
                                -------------------





                                     CITATION
                                     --------
                Please cite the following reference when publishing
                           results obtained with NWChem:

                 M. Valiev, E.J. Bylaska, N. Govind, K. Kowalski,
              T.P. Straatsma, H.J.J. van Dam, D. Wang, J. Nieplocha,
                        E. Apra, T.L. Windus, W.A. de Jong
                 "NWChem: a comprehensive and scalable open-source
                  solution for large scale molecular simulations"
                      Comput. Phys. Commun. 181, 1477 (2010)
                           doi:10.1016/j.cpc.2010.04.018

                                      AUTHORS
                                      -------
          E. Apra, E. J. Bylaska, W. A. de Jong, N. Govind, K. Kowalski,
       T. P. Straatsma, M. Valiev, H. J. J. van Dam, D. Wang, T. L. Windus,
        J. Hammond, J. Autschbach, K. Bhaskaran-Nair, J. Brabec, K. Lopata,
    S. A. Fischer, S. Krishnamoorthy, M. Jacquelin, W. Ma, M. Klemm, O. Villa,
      Y. Chen, V. Anisimov, F. Aquino, S. Hirata, M. T. Hackler, V. Konjkov,
      T. Risthaus, M. Malagoli, A. Marenich, A. Otero-de-la-Roza, J. Mullin,
        P. Nichols, R. Peverati, J. Pittner, Y. Zhao, P.-D. Fan, A. Fonari,
       M. Williamson, R. J. Harrison, J. R. Rehr, M. Dupuis, D. Silverstein,
    D. M. A. Smith, J. Nieplocha, V. Tipparaju, M. Krishnan, B. E. Van Kuiken,
        A. Vazquez-Mayagoitia, L. Jensen, M. Swart, Q. Wu, T. Van Voorhis,
     A. A. Auer, M. Nooijen, L. D. Crosby, E. Brown, G. Cisneros, G. I. Fann,
   H. Fruchtl, J. Garza, K. Hirao, R. A. Kendall, J. A. Nichols, K. Tsemekhman,
    K. Wolinski, J. Anchell, D. E. Bernholdt, P. Borowski, T. Clark, D. Clerc,
   H. Dachsel, M. J. O. Deegan, K. Dyall, D. Elwood, E. Glendening, M. Gutowski,
   A. C. Hess, J. Jaffe, B. G. Johnson, J. Ju, R. Kobayashi, R. Kutteh, Z. Lin,
   R. Littlefield, X. Long, B. Meng, T. Nakajima, S. Niu, L. Pollack, M. Rosing,
   K. Glaesemann, G. Sandrone, M. Stave, H. Taylor, G. Thomas, J. H. van Lenthe,
                               A. T. Wong, Z. Zhang.

 Total times  cpu:     3864.4s     wall:     4534.9s
