 argument  1 = input-wf.nw



============================== echo of input deck ==============================
echo
start wfn1_dat
geometry units au noautoz
  H 0 0 -2.54434600000000000000
  H 0 0  2.54434600000000000000
  symmetry cs
end
basis
  H library 6-31g**
end
set wfn1:input_vectors "atomic"
set wfn1:solver "monte-carlo"
set wfn1:print_error F
set wfn1:t_initial 0.1
#set wfn1:corr_expr "wfn1_mx"
set wfn1:corr_expr "wfn1c"
set wfn1:t_bath 0.0
set wfn1:maxit  20000
task wfn1 energy
================================================================================


                                         
                                         


              Northwest Computational Chemistry Package (NWChem) 6.8
              ------------------------------------------------------


                    Environmental Molecular Sciences Laboratory
                       Pacific Northwest National Laboratory
                                Richland, WA 99352

                              Copyright (c) 1994-2015
                       Pacific Northwest National Laboratory
                            Battelle Memorial Institute

             NWChem is an open-source computational chemistry package
                        distributed under the terms of the
                      Educational Community License (ECL) 2.0
             A copy of the license is included with this distribution
                              in the LICENSE.TXT file

                                  ACKNOWLEDGMENT
                                  --------------

            This software and its documentation were developed at the
            EMSL at Pacific Northwest National Laboratory, a multiprogram
            national laboratory, operated for the U.S. Department of Energy
            by Battelle under Contract Number DE-AC05-76RL01830. Support
            for this work was provided by the Department of Energy Office
            of Biological and Environmental Research, Office of Basic
            Energy Sciences, and the Office of Advanced Scientific Computing.


           Job information
           ---------------

    hostname        = erato
    program         = ../../../bin/LINUX64/nwchem
    date            = Tue Mar  2 07:50:41 2021

    compiled        = Sun_Feb_28_18:02:42_2021
    source          = /home/hvandam/nwchem-1-wfn1
    nwchem branch   = Development
    nwchem revision = nwchem_on_git-124-gad72d19fff205e319ffbbf2bca37a04ded6ad57b
    ga revision     = nwchem_on_git-124-gad72d19
    use scalapack   = F
    input           = input-wf.nw
    prefix          = wfn1_dat.
    data base       = ./wfn1_dat.db
    status          = startup
    nproc           =        1
    time left       =     -1s



           Memory information
           ------------------

    heap     =   13107200 doubles =    100.0 Mbytes
    stack    =   13107197 doubles =    100.0 Mbytes
    global   =   26214400 doubles =    200.0 Mbytes (distinct from heap & stack)
    total    =   52428797 doubles =    400.0 Mbytes
    verify   = yes
    hardfail = no 


           Directory information
           ---------------------

  0 permanent = .
  0 scratch   = .




                                NWChem Input Module
                                -------------------


 Turning off AUTOSYM since
 SYMMETRY directive was detected!



                             Geometry "geometry" -> ""
                             -------------------------

 Output coordinates in a.u. (scale by  1.000000000 to convert to a.u.)

  No.       Tag          Charge          X              Y              Z
 ---- ---------------- ---------- -------------- -------------- --------------
    1 H                    1.0000     0.00000000     0.00000000    -2.54434600
    2 H                    1.0000     0.00000000     0.00000000     2.54434600

      Atomic Mass 
      ----------- 

      H                  1.007825


 Effective nuclear repulsion energy (a.u.)       0.1965141533

            Nuclear Dipole moment (a.u.) 
            ----------------------------
        X                 Y               Z
 ---------------- ---------------- ----------------
     0.0000000000     0.0000000000     0.0000000000

      Symmetry information
      --------------------

 Group name             Cs        
 Group number              2
 Group order               2
 No. of unique centers     1

      Symmetry unique atoms

     1


            XYZ format geometry
            -------------------
     2
 geometry
 H                     0.00000000     0.00000000    -1.34641002
 H                     0.00000000     0.00000000     1.34641002

                      Basis "ao basis" -> "" (cartesian)
                      -----
  H (Hydrogen)
  ------------
            Exponent  Coefficients 
       -------------- ---------------------------------------------------------
  1 S  1.87311370E+01  0.033495
  1 S  2.82539370E+00  0.234727
  1 S  6.40121700E-01  0.813757

  2 S  1.61277800E-01  1.000000

  3 P  1.10000000E+00  1.000000



 Summary of "ao basis" -> "" (cartesian)
 ------------------------------------------------------------------------------
       Tag                 Description            Shells   Functions and Types
 ---------------- ------------------------------  ------  ---------------------
 H                          6-31g**                  3        5   2s1p



                                NWChem WFN1 Module
                                ------------------



          No. of electrons :     2
           Alpha electrons :     1
            Beta electrons :     1
          Charge           :     0
          Spin multiplicity:     1

 HvD: wfn1_inpdft
 HvD: nquad_task =                     1
 HvD: iangquad   =                     0
 HvD: gridtype   = user      
 HvD: leb        =  T
 HvD: radgrid    = murakn    
 HvD: trunc_neigh=  T
 HvD: lssw       =  T
 HvD: whichssw   = erf1    
 HvD: mxnrad     =                     0
 HvD: mxnang     =                     0
 HVD: wfn1: movecs_in  = atomic                                                                                                                                                                                                                                                          
 HVD: wfn1: movecs_out = ./wfn1_dat.movecs                                                                                                                                                                                                                                               

      Superposition of Atomic Density Guess
      -------------------------------------

 Sum of atomic energies:          -0.99646508

      Non-variational initial energy
      ------------------------------

 Total energy =      -0.683331
 1-e energy   =      -1.389487
 2-e energy   =       0.509641
 HOMO         =      -0.220366
 LUMO         =      -0.160129

 iteration              energy           error
 ---------              ------           -----
         0         -0.84313639        0.200000
         1         -0.84999390        0.200000
         2         -0.85085659        0.200000
         3         -0.85400415        0.200000
         4         -0.85480982        0.200000
         5         -0.85519083        0.200000
         6         -0.85634204        0.200000
         7         -0.85660094        0.200000
         8         -0.85704375        0.200000
         9         -0.85745064        0.200000
        10         -0.85795418        0.200000
        11         -0.85834550        0.200000
        12         -0.85986365        0.200000
        13         -0.86002503        0.200000
        14         -0.86060279        0.200000
        15         -0.86227310        0.200000
        16         -0.86295525        0.185175
        17         -0.86298624        0.185175
        18         -0.86327235        0.185175
        19         -0.86365647        0.185175
        20         -0.86391377        0.185175
        21         -0.86402077        0.158740
        22         -0.86420259        0.146973
        23         -0.86425836        0.146973
        24         -0.86453987        0.146973
        25         -0.86461056        0.136079
        26         -0.86470888        0.136079
        27         -0.86483849        0.125992
        28         -0.86539759        0.125992
        29         -0.86551203        0.125992
        30         -0.86578022        0.116653
        31         -0.86592135        0.116653
        32         -0.86603400        0.116653
        33         -0.86635923        0.116653
        34         -0.86662319        0.108006
        35         -0.86663823        0.108006
        36         -0.86670171        0.100000
        37         -0.86675702        0.100000
        38         -0.86691445        0.100000
        39         -0.86701133        0.100000
        40         -0.86712158        0.100000
        41         -0.86742584        0.079370
        42         -0.86749024        0.073487
        43         -0.86755327        0.068040
        44         -0.86769610        0.068040
        45         -0.86770207        0.068040
        46         -0.86770611        0.068040
        47         -0.86770698        0.062996
        48         -0.86771714        0.062996
        49         -0.86775247        0.058326
        50         -0.86778340        0.050000
        51         -0.86780139        0.046294
        52         -0.86786848        0.046294
        53         -0.86789837        0.046294
        54         -0.86792107        0.046294
        55         -0.86792573        0.046294
        56         -0.86793619        0.042862
        57         -0.86796493        0.042862
        58         -0.86797702        0.042862
        59         -0.86798377        0.042862
        60         -0.86800054        0.036743
        61         -0.86800404        0.036743
        62         -0.86808220        0.036743
        63         -0.86810566        0.034020
        64         -0.86811674        0.031498
        65         -0.86812143        0.031498
        66         -0.86812395        0.031498
        67         -0.86814203        0.031498
        68         -0.86815746        0.029163
        69         -0.86816134        0.029163
        70         -0.86821519        0.029163
        71         -0.86822223        0.029163
        72         -0.86822299        0.029163
        73         -0.86822921        0.029163
        74         -0.86823416        0.029163
        75         -0.86823805        0.029163
        76         -0.86824300        0.029163
        77         -0.86825368        0.029163
        78         -0.86827063        0.029163
        79         -0.86829387        0.029163
        80         -0.86830806        0.029163
        81         -0.86831044        0.029163
        82         -0.86833483        0.029163
        83         -0.86835012        0.029163
        84         -0.86835319        0.027001
        85         -0.86836815        0.027001
        86         -0.86836855        0.027001
        87         -0.86837162        0.027001
        88         -0.86839649        0.027001
        89         -0.86841657        0.027001
        90         -0.86842013        0.027001
        91         -0.86843594        0.027001
        92         -0.86844469        0.027001
        93         -0.86845680        0.027001
        94         -0.86846219        0.025000
        95         -0.86846279        0.025000
        96         -0.86847070        0.025000
        97         -0.86848079        0.025000
        98         -0.86848733        0.025000
        99         -0.86849027        0.025000
       100         -0.86852175        0.025000
       101         -0.86852840        0.025000
       102         -0.86852977        0.025000
       103         -0.86855142        0.025000
       104         -0.86855771        0.025000
       105         -0.86856010        0.023147
       106         -0.86856370        0.023147
       107         -0.86856695        0.021431
       108         -0.86857130        0.021431
       109         -0.86858217        0.021431
       110         -0.86859928        0.021431
       111         -0.86860561        0.021431
       112         -0.86862189        0.021431
       113         -0.86863547        0.021431
       114         -0.86864086        0.019843
       115         -0.86864486        0.019843
       116         -0.86866297        0.017010
       117         -0.86866463        0.017010
       118         -0.86866661        0.017010
       119         -0.86866965        0.017010
       120         -0.86867786        0.017010
       121         -0.86868115        0.017010
       122         -0.86868444        0.017010
       123         -0.86868523        0.015749
       124         -0.86868685        0.015749
       125         -0.86868834        0.015749
       126         -0.86869842        0.015749
       127         -0.86869857        0.015749
       128         -0.86870536        0.015749
       129         -0.86870756        0.015749
       130         -0.86870961        0.015749
       131         -0.86871872        0.015749
       132         -0.86872079        0.015749
       133         -0.86872531        0.015749
       134         -0.86872737        0.015749
       135         -0.86872817        0.015749
       136         -0.86873333        0.015749
       137         -0.86873492        0.015749
       138         -0.86873642        0.015749
       139         -0.86874146        0.015749
       140         -0.86874882        0.015749
       141         -0.86874911        0.015749
       142         -0.86875617        0.015749
       143         -0.86876757        0.015749
       144         -0.86877391        0.015749
       145         -0.86877771        0.015749
       146         -0.86879223        0.015749
       147         -0.86880669        0.015749
       148         -0.86880781        0.015749
       149         -0.86880908        0.014582
       150         -0.86881169        0.014582
       151         -0.86881389        0.014582
       152         -0.86881776        0.014582
       153         -0.86882158        0.014582
       154         -0.86882425        0.014582
       155         -0.86882464        0.014582
       156         -0.86882474        0.014582
       157         -0.86883148        0.014582
       158         -0.86883918        0.014582
       159         -0.86883925        0.014582
       160         -0.86884196        0.014582
       161         -0.86884542        0.014582
       162         -0.86884640        0.013501
       163         -0.86884654        0.013501
       164         -0.86884815        0.013501
       165         -0.86884823        0.013501
       166         -0.86884944        0.013501
       167         -0.86885799        0.013501
       168         -0.86886301        0.013501
       169         -0.86887090        0.013501
       170         -0.86887099        0.013501
       171         -0.86887299        0.013501
       172         -0.86887596        0.013501
       173         -0.86887695        0.013501
       174         -0.86887816        0.013501
       175         -0.86887887        0.012500
       176         -0.86888513        0.012500
       177         -0.86889110        0.012500
       178         -0.86889856        0.012500
       179         -0.86889998        0.012500
       180         -0.86890132        0.012500
       181         -0.86890264        0.012500
       182         -0.86890430        0.011573
       183         -0.86890824        0.011573
       184         -0.86890934        0.011573
       185         -0.86891093        0.011573
       186         -0.86891206        0.011573
       187         -0.86891521        0.011573
       188         -0.86891578        0.011573
       189         -0.86891800        0.011573
       190         -0.86892025        0.011573
       191         -0.86892349        0.011573
       192         -0.86892419        0.011573
       193         -0.86892759        0.011573
       194         -0.86892886        0.011573
       195         -0.86892928        0.011573
       196         -0.86893132        0.011573
       197         -0.86893348        0.011573
       198         -0.86893372        0.011573
       199         -0.86893483        0.011573
       200         -0.86893669        0.011573
       201         -0.86893727        0.011573
       202         -0.86893795        0.011573
       203         -0.86893975        0.010716
       204         -0.86894139        0.010716
       205         -0.86894327        0.009921
       206         -0.86894453        0.009921
       207         -0.86894626        0.009186
       208         -0.86894803        0.009186
       209         -0.86894862        0.009186
       210         -0.86894940        0.009186
       211         -0.86895091        0.009186
       212         -0.86895255        0.008505
       213         -0.86895402        0.008505
       214         -0.86895436        0.007875
       215         -0.86895449        0.007875
       216         -0.86895676        0.007875
       217         -0.86895743        0.007875
       218         -0.86896210        0.007875
       219         -0.86896358        0.007875
       220         -0.86896370        0.007875
       221         -0.86896436        0.007291
       222         -0.86896505        0.006750
       223         -0.86896628        0.006750
       224         -0.86896630        0.006750
       225         -0.86896752        0.006750
       226         -0.86896880        0.006750
       227         -0.86896936        0.006750
       228         -0.86896966        0.006750
       229         -0.86897038        0.006750
       230         -0.86897102        0.006750
       231         -0.86897117        0.006750
       232         -0.86897182        0.006750
       233         -0.86897263        0.006750
       234         -0.86897399        0.006750
       235         -0.86897454        0.006750
       236         -0.86897464        0.006750
       237         -0.86897557        0.006750
       238         -0.86897664        0.006250
       239         -0.86897828        0.006250
       240         -0.86897981        0.005787
       241         -0.86898017        0.005787
       242         -0.86898043        0.005787
       243         -0.86898112        0.005787
       244         -0.86898200        0.005787
       245         -0.86898253        0.005787
       246         -0.86898404        0.005787
       247         -0.86898441        0.005787
       248         -0.86898485        0.005787
       249         -0.86898588        0.005787
       250         -0.86898600        0.005787
       251         -0.86898684        0.005787
       252         -0.86898686        0.005787
       253         -0.86898830        0.005787
       254         -0.86898896        0.005787
       255         -0.86898921        0.005787
       256         -0.86898932        0.005787
       257         -0.86899059        0.005787
       258         -0.86899129        0.005787
       259         -0.86899157        0.005787
       260         -0.86899228        0.005787
       261         -0.86899321        0.005358
       262         -0.86899336        0.005358
       263         -0.86899384        0.005358
       264         -0.86899410        0.005358
       265         -0.86899466        0.005358
       266         -0.86899469        0.005358
       267         -0.86899533        0.005358
       268         -0.86899564        0.005358
       269         -0.86899694        0.005358
       270         -0.86899712        0.005358
       271         -0.86899794        0.005358
       272         -0.86899796        0.005358
       273         -0.86899818        0.005358
       274         -0.86899877        0.005358
       275         -0.86899878        0.005358
       276         -0.86899951        0.005358
       277         -0.86900016        0.005358
       278         -0.86900035        0.005358
       279         -0.86900060        0.005358
       280         -0.86900184        0.005358
       281         -0.86900229        0.005358
       282         -0.86900288        0.005358
       283         -0.86900298        0.005358
       284         -0.86900328        0.005358
       285         -0.86900354        0.005358
       286         -0.86900365        0.005358
       287         -0.86900376        0.005358
       288         -0.86900424        0.005358
       289         -0.86900434        0.005358
       290         -0.86900447        0.004961
       291         -0.86900460        0.004961
       292         -0.86900506        0.004961
       293         -0.86900636        0.004961
       294         -0.86900656        0.004961
       295         -0.86900698        0.004961
       296         -0.86900788        0.004961
       297         -0.86900789        0.004961
       298         -0.86900796        0.004961
       299         -0.86900879        0.004961
       300         -0.86900880        0.004961
       301         -0.86900916        0.004961
       302         -0.86900982        0.004961
       303         -0.86901033        0.004961
       304         -0.86901053        0.004961
       305         -0.86901089        0.004961
       306         -0.86901191        0.004961
       307         -0.86901228        0.004961
       308         -0.86901230        0.004961
       309         -0.86901312        0.004961
       310         -0.86901352        0.004961
       311         -0.86901407        0.004961
       312         -0.86901501        0.004961
       313         -0.86901536        0.004961
       314         -0.86901547        0.004961
       315         -0.86901571        0.004961
       316         -0.86901645        0.004961
       317         -0.86901668        0.004961
       318         -0.86901753        0.004961
       319         -0.86901784        0.004961
       320         -0.86901827        0.004961
       321         -0.86901954        0.004961
       322         -0.86901966        0.004961
       323         -0.86902022        0.004961
       324         -0.86902174        0.004961
       325         -0.86902192        0.004961
       326         -0.86902260        0.004961
       327         -0.86902294        0.004961
       328         -0.86902339        0.004961
       329         -0.86902345        0.004961
       330         -0.86902390        0.004961
       331         -0.86902435        0.004961
       332         -0.86902522        0.004961
       333         -0.86902613        0.004961
       334         -0.86902655        0.004961
       335         -0.86902695        0.004961
       336         -0.86902764        0.004961
       337         -0.86902781        0.004961
       338         -0.86902867        0.004961
       339         -0.86902881        0.004961
       340         -0.86902884        0.004961
       341         -0.86902935        0.004961
       342         -0.86903008        0.004961
       343         -0.86903058        0.004593
       344         -0.86903063        0.004593
       345         -0.86903083        0.004593
       346         -0.86903086        0.004593
       347         -0.86903087        0.004593
       348         -0.86903095        0.004593
       349         -0.86903111        0.004593
       350         -0.86903161        0.004593
       351         -0.86903239        0.004593
       352         -0.86903298        0.004593
       353         -0.86903323        0.004593
       354         -0.86903349        0.004593
       355         -0.86903352        0.004593
       356         -0.86903353        0.004593
       357         -0.86903439        0.004593
       358         -0.86903448        0.004252
       359         -0.86903462        0.004252
       360         -0.86903507        0.004252
       361         -0.86903529        0.004252
       362         -0.86903590        0.004252
       363         -0.86903592        0.004252
       364         -0.86903594        0.004252
       365         -0.86903611        0.004252
       366         -0.86903654        0.004252
       367         -0.86903674        0.004252
       368         -0.86903681        0.004252
       369         -0.86903774        0.004252
       370         -0.86903784        0.004252
       371         -0.86903837        0.004252
       372         -0.86903856        0.004252
       373         -0.86903885        0.004252
       374         -0.86903897        0.004252
       375         -0.86903957        0.004252
       376         -0.86904011        0.004252
       377         -0.86904014        0.004252
       378         -0.86904020        0.004252
       379         -0.86904050        0.004252
       380         -0.86904101        0.004252
       381         -0.86904181        0.004252
       382         -0.86904220        0.004252
       383         -0.86904231        0.004252
       384         -0.86904338        0.004252
       385         -0.86904355        0.004252
       386         -0.86904416        0.004252
       387         -0.86904449        0.004252
       388         -0.86904482        0.004252
       389         -0.86904517        0.004252
       390         -0.86904632        0.004252
       391         -0.86904704        0.004252
       392         -0.86904715        0.004252
       393         -0.86904721        0.004252
       394         -0.86904757        0.004252
       395         -0.86904769        0.004252
       396         -0.86904776        0.004252
       397         -0.86904778        0.004252
       398         -0.86904807        0.004252
       399         -0.86904842        0.004252
       400         -0.86904999        0.004252
       401         -0.86905089        0.004252
       402         -0.86905100        0.004252
       403         -0.86905102        0.004252
       404         -0.86905103        0.004252
       405         -0.86905140        0.004252
       406         -0.86905152        0.004252
       407         -0.86905176        0.004252
       408         -0.86905187        0.004252
       409         -0.86905195        0.004252
       410         -0.86905202        0.003937
       411         -0.86905244        0.003937
       412         -0.86905284        0.003937
       413         -0.86905305        0.003937
       414         -0.86905314        0.003937
       415         -0.86905420        0.003937
       416         -0.86905537        0.003937
       417         -0.86905540        0.003937
       418         -0.86905561        0.003937
       419         -0.86905582        0.003645
       420         -0.86905582        0.003645
       421         -0.86905632        0.003645
       422         -0.86905672        0.003645
       423         -0.86905703        0.003645
       424         -0.86905740        0.003645
       425         -0.86905776        0.003645
       426         -0.86905785        0.003645
       427         -0.86905860        0.003645
       428         -0.86905867        0.003645
       429         -0.86905909        0.003645
       430         -0.86905928        0.003645
       431         -0.86905973        0.003645
       432         -0.86905987        0.003645
       433         -0.86905997        0.003645
       434         -0.86906042        0.003645
       435         -0.86906066        0.003645
       436         -0.86906081        0.003645
       437         -0.86906103        0.003645
       438         -0.86906221        0.003645
       439         -0.86906254        0.003645
       440         -0.86906266        0.003645
       441         -0.86906277        0.003645
       442         -0.86906346        0.003645
       443         -0.86906377        0.003645
       444         -0.86906416        0.003645
       445         -0.86906474        0.003645
       446         -0.86906529        0.003645
       447         -0.86906546        0.003645
       448         -0.86906581        0.003645
       449         -0.86906671        0.003645
       450         -0.86906687        0.003645
       451         -0.86906711        0.003645
       452         -0.86906723        0.003645
       453         -0.86906758        0.003645
       454         -0.86906768        0.003645
       455         -0.86906769        0.003645
       456         -0.86906794        0.003375
       457         -0.86906853        0.003375
       458         -0.86906890        0.003375
       459         -0.86906910        0.003375
       460         -0.86906957        0.003375
       461         -0.86906969        0.003375
       462         -0.86907015        0.003375
       463         -0.86907019        0.003375
       464         -0.86907064        0.003375
       465         -0.86907112        0.003375
       466         -0.86907134        0.003375
       467         -0.86907198        0.003375
       468         -0.86907202        0.003375
       469         -0.86907270        0.003375
       470         -0.86907271        0.003375
       471         -0.86907297        0.003375
       472         -0.86907303        0.003375
       473         -0.86907336        0.003375
       474         -0.86907354        0.003375
       475         -0.86907355        0.003375
       476         -0.86907358        0.003375
       477         -0.86907359        0.003375
       478         -0.86907398        0.003375
       479         -0.86907510        0.003375
       480         -0.86907525        0.003375
       481         -0.86907526        0.003375
       482         -0.86907621        0.003375
       483         -0.86907659        0.003375
       484         -0.86907670        0.003375
       485         -0.86907692        0.003375
       486         -0.86907699        0.003375
       487         -0.86907720        0.003375
       488         -0.86907787        0.003375
       489         -0.86907817        0.003375
       490         -0.86907851        0.003375
       491         -0.86907878        0.003375
       492         -0.86907915        0.003375
       493         -0.86907944        0.003375
       494         -0.86907973        0.003375
       495         -0.86907996        0.003375
       496         -0.86908033        0.003375
       497         -0.86908090        0.003375
       498         -0.86908095        0.003375
       499         -0.86908098        0.003375
       500         -0.86908124        0.003125
       501         -0.86908125        0.003125
       502         -0.86908161        0.003125
       503         -0.86908191        0.003125
       504         -0.86908193        0.003125
       505         -0.86908208        0.003125
       506         -0.86908226        0.003125
       507         -0.86908266        0.003125
       508         -0.86908295        0.003125
       509         -0.86908314        0.003125
       510         -0.86908366        0.003125
       511         -0.86908400        0.003125
       512         -0.86908413        0.003125
       513         -0.86908419        0.003125
       514         -0.86908447        0.003125
       515         -0.86908448        0.003125
       516         -0.86908481        0.003125
       517         -0.86908542        0.003125
       518         -0.86908550        0.003125
       519         -0.86908575        0.003125
       520         -0.86908646        0.003125
       521         -0.86908683        0.003125
       522         -0.86908695        0.003125
       523         -0.86908704        0.003125
       524         -0.86908730        0.003125
       525         -0.86908779        0.003125
       526         -0.86908825        0.003125
       527         -0.86908852        0.003125
       528         -0.86908898        0.003125
       529         -0.86908913        0.003125
       530         -0.86908982        0.003125
       531         -0.86909032        0.003125
       532         -0.86909038        0.003125
       533         -0.86909115        0.003125
       534         -0.86909126        0.003125
       535         -0.86909135        0.003125
       536         -0.86909186        0.003125
       537         -0.86909244        0.003125
       538         -0.86909252        0.003125
       539         -0.86909301        0.003125
       540         -0.86909303        0.003125
       541         -0.86909317        0.003125
       542         -0.86909391        0.003125
       543         -0.86909392        0.003125
       544         -0.86909443        0.003125
       545         -0.86909443        0.003125
       546         -0.86909468        0.003125
       547         -0.86909478        0.003125
       548         -0.86909537        0.003125
       549         -0.86909571        0.003125
       550         -0.86909603        0.003125
       551         -0.86909604        0.003125
       552         -0.86909636        0.003125
       553         -0.86909708        0.003125
       554         -0.86909710        0.003125
       555         -0.86909740        0.003125
       556         -0.86909747        0.003125
       557         -0.86909747        0.003125
       558         -0.86909766        0.003125
       559         -0.86909779        0.003125
       560         -0.86909787        0.003125
       561         -0.86909852        0.003125
       562         -0.86909858        0.003125
       563         -0.86909871        0.003125
       564         -0.86909890        0.003125
       565         -0.86909905        0.002893
       566         -0.86909910        0.002893
       567         -0.86909937        0.002893
       568         -0.86909960        0.002893
       569         -0.86909991        0.002893
       570         -0.86910013        0.002893
       571         -0.86910024        0.002893
       572         -0.86910042        0.002893
       573         -0.86910066        0.002893
       574         -0.86910096        0.002893
       575         -0.86910113        0.002893
       576         -0.86910135        0.002893
       577         -0.86910205        0.002893
       578         -0.86910213        0.002893
       579         -0.86910219        0.002893
       580         -0.86910242        0.002893
       581         -0.86910245        0.002893
       582         -0.86910248        0.002893
       583         -0.86910301        0.002893
       584         -0.86910305        0.002893
       585         -0.86910312        0.002893
       586         -0.86910334        0.002893
       587         -0.86910354        0.002893
       588         -0.86910363        0.002893
       589         -0.86910372        0.002893
       590         -0.86910418        0.002893
       591         -0.86910429        0.002893
       592         -0.86910458        0.002893
       593         -0.86910518        0.002893
       594         -0.86910580        0.002893
       595         -0.86910622        0.002893
       596         -0.86910630        0.002893
       597         -0.86910642        0.002893
       598         -0.86910700        0.002893
       599         -0.86910737        0.002893
       600         -0.86910753        0.002893
       601         -0.86910754        0.002893
       602         -0.86910759        0.002893
       603         -0.86910789        0.002893
       604         -0.86910795        0.002893
       605         -0.86910814        0.002893
       606         -0.86910844        0.002893
       607         -0.86910846        0.002893
       608         -0.86910894        0.002893
       609         -0.86910955        0.002893
       610         -0.86910995        0.002893
       611         -0.86911016        0.002893
       612         -0.86911018        0.002893
       613         -0.86911026        0.002893
       614         -0.86911029        0.002893
       615         -0.86911092        0.002893
       616         -0.86911134        0.002893
       617         -0.86911141        0.002893
       618         -0.86911227        0.002893
       619         -0.86911235        0.002893
       620         -0.86911239        0.002893
       621         -0.86911321        0.002893
       622         -0.86911338        0.002893
       623         -0.86911374        0.002893
       624         -0.86911444        0.002893
       625         -0.86911451        0.002893
       626         -0.86911463        0.002893
       627         -0.86911472        0.002893
       628         -0.86911495        0.002893
       629         -0.86911540        0.002893
       630         -0.86911553        0.002893
       631         -0.86911598        0.002893
       632         -0.86911615        0.002893
       633         -0.86911656        0.002893
       634         -0.86911667        0.002893
       635         -0.86911699        0.002893
       636         -0.86911732        0.002893
       637         -0.86911801        0.002893
       638         -0.86911824        0.002893
       639         -0.86911833        0.002893
       640         -0.86911911        0.002893
       641         -0.86911935        0.002893
       642         -0.86911942        0.002893
       643         -0.86912060        0.002893
       644         -0.86912083        0.002893
       645         -0.86912100        0.002893
       646         -0.86912125        0.002893
       647         -0.86912125        0.002893
       648         -0.86912169        0.002893
       649         -0.86912175        0.002893
       650         -0.86912195        0.002893
       651         -0.86912240        0.002893
       652         -0.86912242        0.002893
       653         -0.86912249        0.002679
       654         -0.86912264        0.002679
       655         -0.86912286        0.002679
       656         -0.86912338        0.002679
       657         -0.86912363        0.002679
       658         -0.86912372        0.002679
       659         -0.86912401        0.002679
       660         -0.86912444        0.002679
       661         -0.86912445        0.002679
       662         -0.86912471        0.002679
       663         -0.86912477        0.002679
       664         -0.86912491        0.002679
       665         -0.86912515        0.002679
       666         -0.86912521        0.002679
       667         -0.86912559        0.002679
       668         -0.86912575        0.002679
       669         -0.86912595        0.002679
       670         -0.86912613        0.002679
       671         -0.86912616        0.002679
       672         -0.86912629        0.002679
       673         -0.86912663        0.002679
       674         -0.86912677        0.002679
       675         -0.86912682        0.002679
       676         -0.86912703        0.002679
       677         -0.86912710        0.002679
       678         -0.86912742        0.002679
       679         -0.86912753        0.002679
       680         -0.86912761        0.002679
       681         -0.86912771        0.002679
       682         -0.86912782        0.002679
       683         -0.86912797        0.002679
       684         -0.86912835        0.002679
       685         -0.86912889        0.002679
       686         -0.86912942        0.002679
       687         -0.86912949        0.002679
       688         -0.86913022        0.002679
       689         -0.86913053        0.002679
       690         -0.86913101        0.002679
       691         -0.86913130        0.002679
       692         -0.86913136        0.002679
       693         -0.86913160        0.002679
       694         -0.86913170        0.002679
       695         -0.86913238        0.002679
       696         -0.86913243        0.002679
       697         -0.86913258        0.002679
       698         -0.86913290        0.002679
       699         -0.86913292        0.002679
       700         -0.86913311        0.002679
       701         -0.86913313        0.002679
       702         -0.86913364        0.002679
       703         -0.86913377        0.002679
       704         -0.86913419        0.002679
       705         -0.86913427        0.002679
       706         -0.86913434        0.002679
       707         -0.86913449        0.002679
       708         -0.86913450        0.002679
       709         -0.86913522        0.002679
       710         -0.86913523        0.002679
       711         -0.86913528        0.002679
       712         -0.86913534        0.002679
       713         -0.86913563        0.002679
       714         -0.86913585        0.002679
       715         -0.86913614        0.002679
       716         -0.86913654        0.002679
       717         -0.86913727        0.002679
       718         -0.86913744        0.002679
       719         -0.86913781        0.002679
       720         -0.86913818        0.002679
       721         -0.86913858        0.002679
       722         -0.86913906        0.002679
       723         -0.86913909        0.002679
       724         -0.86913932        0.002679
       725         -0.86914000        0.002679
       726         -0.86914041        0.002679
       727         -0.86914067        0.002679
       728         -0.86914075        0.002679
       729         -0.86914122        0.002679
       730         -0.86914129        0.002679
       731         -0.86914145        0.002679
       732         -0.86914199        0.002679
       733         -0.86914220        0.002679
       734         -0.86914258        0.002679
       735         -0.86914263        0.002679
       736         -0.86914265        0.002679
       737         -0.86914274        0.002679
       738         -0.86914309        0.002679
       739         -0.86914344        0.002679
       740         -0.86914385        0.002679
       741         -0.86914468        0.002679
       742         -0.86914534        0.002679
       743         -0.86914563        0.002679
       744         -0.86914590        0.002679
       745         -0.86914596        0.002679
       746         -0.86914642        0.002679
       747         -0.86914656        0.002679
       748         -0.86914666        0.002679
       749         -0.86914668        0.002679
       750         -0.86914671        0.002679
       751         -0.86914706        0.002679
       752         -0.86914788        0.002679
       753         -0.86914833        0.002679
       754         -0.86914887        0.002679
       755         -0.86914893        0.002679
       756         -0.86914896        0.002480
       757         -0.86914896        0.002480
       758         -0.86914924        0.002480
       759         -0.86914928        0.002480
       760         -0.86914932        0.002480
       761         -0.86914954        0.002480
       762         -0.86915007        0.002480
       763         -0.86915026        0.002480
       764         -0.86915040        0.002480
       765         -0.86915043        0.002480
       766         -0.86915059        0.002480
       767         -0.86915071        0.002480
       768         -0.86915097        0.002480
       769         -0.86915139        0.002480
       770         -0.86915155        0.002480
       771         -0.86915186        0.002480
       772         -0.86915207        0.002480
       773         -0.86915250        0.002480
       774         -0.86915274        0.002480
       775         -0.86915283        0.002480
       776         -0.86915318        0.002480
       777         -0.86915354        0.002480
       778         -0.86915361        0.002480
       779         -0.86915369        0.002480
       780         -0.86915398        0.002480
       781         -0.86915398        0.002296
       782         -0.86915424        0.002296
       783         -0.86915425        0.002296
       784         -0.86915444        0.002296
       785         -0.86915446        0.002296
       786         -0.86915449        0.002296
       787         -0.86915455        0.002296
       788         -0.86915462        0.002296
       789         -0.86915483        0.002296
       790         -0.86915495        0.002296
       791         -0.86915527        0.002296
       792         -0.86915540        0.002296
       793         -0.86915558        0.002296
       794         -0.86915567        0.002296
       795         -0.86915575        0.002296
       796         -0.86915601        0.002296
       797         -0.86915601        0.002296
       798         -0.86915601        0.002296
       799         -0.86915604        0.002296
       800         -0.86915640        0.002296
       801         -0.86915656        0.002296
       802         -0.86915696        0.002296
       803         -0.86915723        0.002296
       804         -0.86915728        0.002296
       805         -0.86915732        0.002296
       806         -0.86915741        0.002296
       807         -0.86915743        0.002296
       808         -0.86915771        0.002296
       809         -0.86915776        0.002296
       810         -0.86915802        0.002296
       811         -0.86915817        0.002296
       812         -0.86915866        0.002296
       813         -0.86915898        0.002296
       814         -0.86915915        0.002296
       815         -0.86915923        0.002296
       816         -0.86915966        0.002296
       817         -0.86915972        0.002296
       818         -0.86915990        0.002296
       819         -0.86916014        0.002296
       820         -0.86916040        0.002296
       821         -0.86916084        0.002296
       822         -0.86916117        0.002296
       823         -0.86916136        0.002296
       824         -0.86916154        0.002296
       825         -0.86916196        0.002296
       826         -0.86916251        0.002296
       827         -0.86916265        0.002296
       828         -0.86916266        0.002296
       829         -0.86916290        0.002296
       830         -0.86916290        0.002296
       831         -0.86916303        0.002296
       832         -0.86916315        0.002296
       833         -0.86916336        0.002296
       834         -0.86916380        0.002296
       835         -0.86916424        0.002296
       836         -0.86916493        0.002296
       837         -0.86916494        0.002296
       838         -0.86916510        0.002296
       839         -0.86916596        0.002296
       840         -0.86916600        0.002296
       841         -0.86916609        0.002296
       842         -0.86916639        0.002296
       843         -0.86916642        0.002296
       844         -0.86916678        0.002296
       845         -0.86916692        0.002296
       846         -0.86916729        0.002296
       847         -0.86916777        0.002296
       848         -0.86916852        0.002296
       849         -0.86916854        0.002296
       850         -0.86916877        0.002296
       851         -0.86916883        0.002296
       852         -0.86916904        0.002296
       853         -0.86916910        0.002296
       854         -0.86916923        0.002296
       855         -0.86916966        0.002296
       856         -0.86917015        0.002296
       857         -0.86917018        0.002296
       858         -0.86917035        0.002296
       859         -0.86917045        0.002296
       860         -0.86917048        0.002296
       861         -0.86917057        0.002296
       862         -0.86917070        0.002296
       863         -0.86917071        0.002296
       864         -0.86917080        0.002296
       865         -0.86917139        0.002296
       866         -0.86917154        0.002296
       867         -0.86917191        0.002296
       868         -0.86917238        0.002296
       869         -0.86917264        0.002296
       870         -0.86917291        0.002296
       871         -0.86917315        0.002296
       872         -0.86917321        0.002296
       873         -0.86917334        0.002296
       874         -0.86917356        0.002296
       875         -0.86917390        0.002296
       876         -0.86917391        0.002296
       877         -0.86917416        0.002296
       878         -0.86917484        0.002296
       879         -0.86917495        0.002296
       880         -0.86917498        0.002296
       881         -0.86917562        0.002296
       882         -0.86917571        0.002296
       883         -0.86917575        0.002296
       884         -0.86917613        0.002296
       885         -0.86917628        0.002296
       886         -0.86917635        0.002296
       887         -0.86917651        0.002296
       888         -0.86917677        0.002296
       889         -0.86917716        0.002296
       890         -0.86917763        0.002296
       891         -0.86917773        0.002296
       892         -0.86917781        0.002296
       893         -0.86917789        0.002296
       894         -0.86917796        0.002296
       895         -0.86917806        0.002296
       896         -0.86917830        0.002296
       897         -0.86917848        0.002296
       898         -0.86917863        0.002296
       899         -0.86917890        0.002296
       900         -0.86917915        0.002296
       901         -0.86917963        0.002296
       902         -0.86917971        0.002296
       903         -0.86918004        0.002296
       904         -0.86918024        0.002296
       905         -0.86918050        0.002296
       906         -0.86918058        0.002296
       907         -0.86918096        0.002296
       908         -0.86918113        0.002296
       909         -0.86918119        0.002296
       910         -0.86918156        0.002296
       911         -0.86918196        0.002296
       912         -0.86918238        0.002296
       913         -0.86918283        0.002296
       914         -0.86918290        0.002296
       915         -0.86918327        0.002296
       916         -0.86918337        0.002296
       917         -0.86918346        0.002296
       918         -0.86918348        0.002296
       919         -0.86918402        0.002296
       920         -0.86918445        0.002296
       921         -0.86918449        0.002296
       922         -0.86918451        0.002296
       923         -0.86918513        0.002296
       924         -0.86918523        0.002296
       925         -0.86918527        0.002296
       926         -0.86918538        0.002296
       927         -0.86918550        0.002296
       928         -0.86918560        0.002296
       929         -0.86918605        0.002296
       930         -0.86918628        0.002296
       931         -0.86918645        0.002296
       932         -0.86918658        0.002296
       933         -0.86918670        0.002296
       934         -0.86918686        0.002296
       935         -0.86918729        0.002296
       936         -0.86918765        0.002296
       937         -0.86918786        0.002296
       938         -0.86918828        0.002296
       939         -0.86918833        0.002296
       940         -0.86918847        0.002296
       941         -0.86918860        0.002296
       942         -0.86918867        0.002296
       943         -0.86918896        0.002296
       944         -0.86918954        0.002296
       945         -0.86918955        0.002296
       946         -0.86918981        0.002296
       947         -0.86918983        0.002296
       948         -0.86918997        0.002296
       949         -0.86919001        0.002296
       950         -0.86919040        0.002296
       951         -0.86919050        0.002296
       952         -0.86919123        0.002296
       953         -0.86919142        0.002296
       954         -0.86919146        0.002296
       955         -0.86919169        0.002296
       956         -0.86919177        0.002296
       957         -0.86919227        0.002296
       958         -0.86919238        0.002296
       959         -0.86919244        0.002296
       960         -0.86919272        0.002296
       961         -0.86919286        0.002296
       962         -0.86919290        0.002296
       963         -0.86919293        0.002296
       964         -0.86919316        0.002296
       965         -0.86919346        0.002296
       966         -0.86919376        0.002296
       967         -0.86919389        0.002296
       968         -0.86919423        0.002296
       969         -0.86919428        0.002296
       970         -0.86919435        0.002296
       971         -0.86919451        0.002296
       972         -0.86919490        0.002296
       973         -0.86919529        0.002296
       974         -0.86919533        0.002296
       975         -0.86919534        0.002296
       976         -0.86919560        0.002296
       977         -0.86919608        0.002296
       978         -0.86919617        0.002296
       979         -0.86919627        0.002296
       980         -0.86919636        0.002296
       981         -0.86919646        0.002296
       982         -0.86919658        0.002296
       983         -0.86919684        0.002296
       984         -0.86919687        0.002296
       985         -0.86919709        0.002296
       986         -0.86919728        0.002296
       987         -0.86919765        0.002296
       988         -0.86919784        0.002296
       989         -0.86919813        0.002296
       990         -0.86919821        0.002296
       991         -0.86919852        0.002296
       992         -0.86919879        0.002296
       993         -0.86919930        0.002296
       994         -0.86919930        0.002296
       995         -0.86919956        0.002296
       996         -0.86919980        0.002296
       997         -0.86919996        0.002296
       998         -0.86920046        0.002296
       999         -0.86920094        0.002296
      1000         -0.86920096        0.002296
      1001         -0.86920102        0.002296
      1002         -0.86920104        0.002296
      1003         -0.86920147        0.002296
      1004         -0.86920161        0.002296
      1005         -0.86920171        0.002296
      1006         -0.86920238        0.002296
      1007         -0.86920250        0.002296
      1008         -0.86920263        0.002296
      1009         -0.86920264        0.002296
      1010         -0.86920312        0.002296
      1011         -0.86920334        0.002296
      1012         -0.86920358        0.002296
      1013         -0.86920426        0.002296
      1014         -0.86920469        0.002296
      1015         -0.86920499        0.002296
      1016         -0.86920557        0.002296
      1017         -0.86920558        0.002296
      1018         -0.86920564        0.002296
      1019         -0.86920576        0.002296
      1020         -0.86920578        0.002296
      1021         -0.86920588        0.002296
      1022         -0.86920610        0.002296
      1023         -0.86920613        0.002296
      1024         -0.86920673        0.002296
      1025         -0.86920687        0.002296
      1026         -0.86920692        0.002296
      1027         -0.86920705        0.002296
      1028         -0.86920737        0.002296
      1029         -0.86920769        0.002296
      1030         -0.86920797        0.002296
      1031         -0.86920818        0.002296
      1032         -0.86920821        0.002296
      1033         -0.86920889        0.002296
      1034         -0.86920925        0.002296
      1035         -0.86920952        0.002296
      1036         -0.86921007        0.002296
      1037         -0.86921019        0.002296
      1038         -0.86921020        0.002296
      1039         -0.86921024        0.002296
      1040         -0.86921044        0.002296
      1041         -0.86921050        0.002296
      1042         -0.86921068        0.002296
      1043         -0.86921075        0.002296
      1044         -0.86921082        0.002296
      1045         -0.86921110        0.002296
      1046         -0.86921111        0.002296
      1047         -0.86921121        0.002296
      1048         -0.86921181        0.002296
      1049         -0.86921189        0.002296
      1050         -0.86921200        0.002296
      1051         -0.86921258        0.002296
      1052         -0.86921264        0.002296
      1053         -0.86921331        0.002296
      1054         -0.86921383        0.002296
      1055         -0.86921393        0.002296
      1056         -0.86921446        0.002296
      1057         -0.86921456        0.002296
      1058         -0.86921483        0.002296
      1059         -0.86921484        0.002296
      1060         -0.86921497        0.002296
      1061         -0.86921502        0.002296
      1062         -0.86921513        0.002296
      1063         -0.86921536        0.002296
      1064         -0.86921540        0.002296
      1065         -0.86921569        0.002296
      1066         -0.86921580        0.002296
      1067         -0.86921649        0.002296
      1068         -0.86921685        0.002296
      1069         -0.86921704        0.002296
      1070         -0.86921725        0.002296
      1071         -0.86921785        0.002296
      1072         -0.86921793        0.002296
      1073         -0.86921814        0.002296
      1074         -0.86921820        0.002296
      1075         -0.86921835        0.002296
      1076         -0.86921877        0.002296
      1077         -0.86921881        0.002296
      1078         -0.86921883        0.002296
      1079         -0.86921898        0.002296
      1080         -0.86921917        0.002296
      1081         -0.86921955        0.002296
      1082         -0.86922030        0.002296
      1083         -0.86922031        0.002296
      1084         -0.86922075        0.002296
      1085         -0.86922084        0.002296
      1086         -0.86922091        0.002296
      1087         -0.86922136        0.002296
      1088         -0.86922175        0.002296
      1089         -0.86922192        0.002296
      1090         -0.86922196        0.002296
      1091         -0.86922199        0.002296
      1092         -0.86922234        0.002296
      1093         -0.86922241        0.002296
      1094         -0.86922244        0.002296
      1095         -0.86922259        0.002296
      1096         -0.86922279        0.002296
      1097         -0.86922292        0.002296
      1098         -0.86922319        0.002296
      1099         -0.86922321        0.002296
      1100         -0.86922376        0.002296
      1101         -0.86922393        0.002296
      1102         -0.86922419        0.002296
      1103         -0.86922446        0.002296
      1104         -0.86922452        0.002296
      1105         -0.86922460        0.002296
      1106         -0.86922509        0.002296
      1107         -0.86922517        0.002296
      1108         -0.86922521        0.002296
      1109         -0.86922531        0.002296
      1110         -0.86922531        0.002296
      1111         -0.86922552        0.002296
      1112         -0.86922552        0.002296
      1113         -0.86922607        0.002296
      1114         -0.86922611        0.002296
      1115         -0.86922651        0.002296
      1116         -0.86922679        0.002296
      1117         -0.86922706        0.002296
      1118         -0.86922715        0.002296
      1119         -0.86922746        0.002296
      1120         -0.86922746        0.002296
      1121         -0.86922771        0.002296
      1122         -0.86922781        0.002296
      1123         -0.86922849        0.002296
      1124         -0.86922879        0.002296
      1125         -0.86922880        0.002296
      1126         -0.86922886        0.002296
      1127         -0.86922903        0.002296
      1128         -0.86922933        0.002296
      1129         -0.86922941        0.002296
      1130         -0.86922959        0.002296
      1131         -0.86922966        0.002296
      1132         -0.86922970        0.002296
      1133         -0.86922985        0.002296
      1134         -0.86923008        0.002296
      1135         -0.86923037        0.002296
      1136         -0.86923097        0.002296
      1137         -0.86923102        0.002296
      1138         -0.86923121        0.002296
      1139         -0.86923146        0.002296
      1140         -0.86923187        0.002296
      1141         -0.86923207        0.002296
      1142         -0.86923244        0.002296
      1143         -0.86923254        0.002296
      1144         -0.86923289        0.002296
      1145         -0.86923321        0.002296
      1146         -0.86923323        0.002296
      1147         -0.86923416        0.002296
      1148         -0.86923449        0.002296
      1149         -0.86923464        0.002296
      1150         -0.86923507        0.002296
      1151         -0.86923510        0.002296
      1152         -0.86923591        0.002296
      1153         -0.86923631        0.002296
      1154         -0.86923679        0.002296
      1155         -0.86923719        0.002296
      1156         -0.86923720        0.002296
      1157         -0.86923720        0.002296
      1158         -0.86923741        0.002296
      1159         -0.86923754        0.002296
      1160         -0.86923782        0.002296
      1161         -0.86923801        0.002296
      1162         -0.86923817        0.002296
      1163         -0.86923825        0.002296
      1164         -0.86923833        0.002296
      1165         -0.86923843        0.002296
      1166         -0.86923848        0.002296
      1167         -0.86923895        0.002296
      1168         -0.86923921        0.002296
      1169         -0.86923922        0.002296
      1170         -0.86923936        0.002296
      1171         -0.86923955        0.002296
      1172         -0.86923960        0.002296
      1173         -0.86923978        0.002296
      1174         -0.86923987        0.002296
      1175         -0.86924000        0.002296
      1176         -0.86924003        0.002296
      1177         -0.86924018        0.002296
      1178         -0.86924081        0.002296
      1179         -0.86924112        0.002296
      1180         -0.86924118        0.002296
      1181         -0.86924120        0.002296
      1182         -0.86924124        0.002296
      1183         -0.86924133        0.002296
      1184         -0.86924139        0.002296
      1185         -0.86924148        0.002296
      1186         -0.86924214        0.002296
      1187         -0.86924230        0.002296
      1188         -0.86924237        0.002296
      1189         -0.86924267        0.002296
      1190         -0.86924303        0.002296
      1191         -0.86924382        0.002296
      1192         -0.86924390        0.002296
      1193         -0.86924410        0.002296
      1194         -0.86924433        0.002296
      1195         -0.86924446        0.002296
      1196         -0.86924537        0.002296
      1197         -0.86924568        0.002296
      1198         -0.86924617        0.002296
      1199         -0.86924624        0.002296
      1200         -0.86924628        0.002296
      1201         -0.86924684        0.002296
      1202         -0.86924694        0.002296
      1203         -0.86924703        0.002296
      1204         -0.86924750        0.002296
      1205         -0.86924793        0.002296
      1206         -0.86924799        0.002296
      1207         -0.86924842        0.002296
      1208         -0.86924853        0.002296
      1209         -0.86924874        0.002296
      1210         -0.86924901        0.002296
      1211         -0.86924915        0.002296
      1212         -0.86924918        0.002296
      1213         -0.86924936        0.002296
      1214         -0.86924977        0.002296
      1215         -0.86924998        0.002296
      1216         -0.86925047        0.002296
      1217         -0.86925068        0.002296
      1218         -0.86925099        0.002296
      1219         -0.86925114        0.002296
      1220         -0.86925166        0.002296
      1221         -0.86925184        0.002296
      1222         -0.86925212        0.002296
      1223         -0.86925214        0.002296
      1224         -0.86925220        0.002296
      1225         -0.86925225        0.002296
      1226         -0.86925236        0.002296
      1227         -0.86925254        0.002296
      1228         -0.86925309        0.002296
      1229         -0.86925336        0.002296
      1230         -0.86925373        0.002296
      1231         -0.86925381        0.002296
      1232         -0.86925407        0.002296
      1233         -0.86925440        0.002296
      1234         -0.86925442        0.002296
      1235         -0.86925455        0.002296
      1236         -0.86925493        0.002296
      1237         -0.86925498        0.002296
      1238         -0.86925498        0.002296
      1239         -0.86925502        0.002296
      1240         -0.86925565        0.002296
      1241         -0.86925597        0.002296
      1242         -0.86925612        0.002296
      1243         -0.86925624        0.002296
      1244         -0.86925643        0.002296
      1245         -0.86925645        0.002296
      1246         -0.86925662        0.002296
      1247         -0.86925716        0.002296
      1248         -0.86925765        0.002296
      1249         -0.86925783        0.002296
      1250         -0.86925797        0.002296
      1251         -0.86925813        0.002296
      1252         -0.86925834        0.002296
      1253         -0.86925845        0.002296
      1254         -0.86925845        0.002296
      1255         -0.86925852        0.002296
      1256         -0.86925857        0.002296
      1257         -0.86925896        0.002296
      1258         -0.86925924        0.002296
      1259         -0.86925948        0.002296
      1260         -0.86925984        0.002296
      1261         -0.86926001        0.002296
      1262         -0.86926005        0.002296
      1263         -0.86926047        0.002296
      1264         -0.86926062        0.002296
      1265         -0.86926081        0.002296
      1266         -0.86926114        0.002296
      1267         -0.86926141        0.002296
      1268         -0.86926146        0.002296
      1269         -0.86926151        0.002296
      1270         -0.86926208        0.002296
      1271         -0.86926218        0.002296
      1272         -0.86926243        0.002296
      1273         -0.86926247        0.002296
      1274         -0.86926303        0.002296
      1275         -0.86926311        0.002296
      1276         -0.86926361        0.002296
      1277         -0.86926369        0.002296
      1278         -0.86926423        0.002296
      1279         -0.86926430        0.002296
      1280         -0.86926433        0.002296
      1281         -0.86926476        0.002296
      1282         -0.86926508        0.002296
      1283         -0.86926514        0.002296
      1284         -0.86926532        0.002296
      1285         -0.86926535        0.002296
      1286         -0.86926565        0.002296
      1287         -0.86926574        0.002296
      1288         -0.86926577        0.002296
      1289         -0.86926599        0.002296
      1290         -0.86926599        0.002296
      1291         -0.86926607        0.002296
      1292         -0.86926609        0.002296
      1293         -0.86926640        0.002296
      1294         -0.86926710        0.002296
      1295         -0.86926721        0.002296
      1296         -0.86926758        0.002296
      1297         -0.86926809        0.002296
      1298         -0.86926829        0.002296
      1299         -0.86926835        0.002296
      1300         -0.86926866        0.002296
      1301         -0.86926889        0.002296
      1302         -0.86926903        0.002296
      1303         -0.86926954        0.002296
      1304         -0.86926958        0.002296
      1305         -0.86927006        0.002296
      1306         -0.86927018        0.002296
      1307         -0.86927036        0.002296
      1308         -0.86927075        0.002296
      1309         -0.86927102        0.002296
      1310         -0.86927154        0.002296
      1311         -0.86927175        0.002296
      1312         -0.86927190        0.002296
      1313         -0.86927200        0.002296
      1314         -0.86927217        0.002296
      1315         -0.86927229        0.002296
      1316         -0.86927242        0.002296
      1317         -0.86927266        0.002296
      1318         -0.86927280        0.002296
      1319         -0.86927330        0.002296
      1320         -0.86927336        0.002296
      1321         -0.86927376        0.002296
      1322         -0.86927458        0.002296
      1323         -0.86927471        0.002296
      1324         -0.86927480        0.002296
      1325         -0.86927537        0.002296
      1326         -0.86927569        0.002296
      1327         -0.86927575        0.002296
      1328         -0.86927611        0.002296
      1329         -0.86927652        0.002296
      1330         -0.86927670        0.002296
      1331         -0.86927704        0.002296
      1332         -0.86927733        0.002296
      1333         -0.86927741        0.002296
      1334         -0.86927789        0.002296
      1335         -0.86927794        0.002296
      1336         -0.86927801        0.002296
      1337         -0.86927811        0.002296
      1338         -0.86927858        0.002296
      1339         -0.86927879        0.002296
      1340         -0.86927883        0.002296
      1341         -0.86927899        0.002296
      1342         -0.86927904        0.002296
      1343         -0.86927951        0.002296
      1344         -0.86927981        0.002296
      1345         -0.86928015        0.002296
      1346         -0.86928038        0.002296
      1347         -0.86928044        0.002296
      1348         -0.86928061        0.002296
      1349         -0.86928088        0.002296
      1350         -0.86928097        0.002296
      1351         -0.86928097        0.002296
      1352         -0.86928139        0.002296
      1353         -0.86928143        0.002296
      1354         -0.86928170        0.002296
      1355         -0.86928215        0.002296
      1356         -0.86928217        0.002296
      1357         -0.86928234        0.002296
      1358         -0.86928262        0.002296
      1359         -0.86928287        0.002296
      1360         -0.86928316        0.002296
      1361         -0.86928327        0.002296
      1362         -0.86928415        0.002296
      1363         -0.86928446        0.002296
      1364         -0.86928452        0.002296
      1365         -0.86928458        0.002296
      1366         -0.86928468        0.002296
      1367         -0.86928497        0.002296
      1368         -0.86928499        0.002296
      1369         -0.86928516        0.002296
      1370         -0.86928599        0.002296
      1371         -0.86928666        0.002296
      1372         -0.86928713        0.002296
      1373         -0.86928719        0.002296
      1374         -0.86928755        0.002296
      1375         -0.86928758        0.002296
      1376         -0.86928767        0.002296
      1377         -0.86928782        0.002296
      1378         -0.86928842        0.002296
      1379         -0.86928907        0.002296
      1380         -0.86928908        0.002296
      1381         -0.86928945        0.002296
      1382         -0.86928955        0.002296
      1383         -0.86928998        0.002296
      1384         -0.86929057        0.002296
      1385         -0.86929069        0.002296
      1386         -0.86929085        0.002296
      1387         -0.86929090        0.002296
      1388         -0.86929099        0.002296
      1389         -0.86929114        0.002296
      1390         -0.86929118        0.002296
      1391         -0.86929186        0.002296
      1392         -0.86929188        0.002296
      1393         -0.86929234        0.002296
      1394         -0.86929256        0.002296
      1395         -0.86929281        0.002296
      1396         -0.86929289        0.002296
      1397         -0.86929293        0.002296
      1398         -0.86929308        0.002296
      1399         -0.86929343        0.002296
      1400         -0.86929389        0.002296
      1401         -0.86929392        0.002296
      1402         -0.86929397        0.002296
      1403         -0.86929397        0.002296
      1404         -0.86929400        0.002296
      1405         -0.86929419        0.002296
      1406         -0.86929466        0.002296
      1407         -0.86929534        0.002296
      1408         -0.86929579        0.002296
      1409         -0.86929630        0.002296
      1410         -0.86929676        0.002296
      1411         -0.86929697        0.002296
      1412         -0.86929719        0.002296
      1413         -0.86929728        0.002296
      1414         -0.86929828        0.002296
      1415         -0.86929862        0.002296
      1416         -0.86929870        0.002296
      1417         -0.86929872        0.002296
      1418         -0.86929892        0.002296
      1419         -0.86929919        0.002296
      1420         -0.86929931        0.002296
      1421         -0.86929934        0.002296
      1422         -0.86929958        0.002296
      1423         -0.86930039        0.002296
      1424         -0.86930062        0.002296
      1425         -0.86930075        0.002296
      1426         -0.86930138        0.002296
      1427         -0.86930167        0.002296
      1428         -0.86930214        0.002296
      1429         -0.86930238        0.002296
      1430         -0.86930274        0.002296
      1431         -0.86930317        0.002296
      1432         -0.86930320        0.002296
      1433         -0.86930336        0.002296
      1434         -0.86930370        0.002296
      1435         -0.86930390        0.002296
      1436         -0.86930419        0.002296
      1437         -0.86930478        0.002296
      1438         -0.86930497        0.002296
      1439         -0.86930513        0.002296
      1440         -0.86930521        0.002296
      1441         -0.86930524        0.002296
      1442         -0.86930555        0.002296
      1443         -0.86930607        0.002296
      1444         -0.86930727        0.002296
      1445         -0.86930762        0.002296
      1446         -0.86930788        0.002296
      1447         -0.86930833        0.002296
      1448         -0.86930872        0.002296
      1449         -0.86930929        0.002296
      1450         -0.86930992        0.002296
      1451         -0.86930995        0.002296
      1452         -0.86931000        0.002296
      1453         -0.86931011        0.002296
      1454         -0.86931022        0.002296
      1455         -0.86931034        0.002296
      1456         -0.86931058        0.002296
      1457         -0.86931082        0.002296
      1458         -0.86931106        0.002296
      1459         -0.86931129        0.002296
      1460         -0.86931178        0.002296
      1461         -0.86931184        0.002296
      1462         -0.86931186        0.002296
      1463         -0.86931221        0.002296
      1464         -0.86931246        0.002296
      1465         -0.86931260        0.002296
      1466         -0.86931260        0.002296
      1467         -0.86931268        0.002296
      1468         -0.86931277        0.002296
      1469         -0.86931301        0.002296
      1470         -0.86931311        0.002296
      1471         -0.86931332        0.002296
      1472         -0.86931376        0.002296
      1473         -0.86931380        0.002296
      1474         -0.86931411        0.002296
      1475         -0.86931418        0.002296
      1476         -0.86931482        0.002296
      1477         -0.86931521        0.002296
      1478         -0.86931529        0.002296
      1479         -0.86931563        0.002296
      1480         -0.86931575        0.002296
      1481         -0.86931591        0.002296
      1482         -0.86931633        0.002296
      1483         -0.86931651        0.002296
      1484         -0.86931655        0.002296
      1485         -0.86931665        0.002296
      1486         -0.86931711        0.002296
      1487         -0.86931748        0.002296
      1488         -0.86931781        0.002296
      1489         -0.86931815        0.002296
      1490         -0.86931844        0.002296
      1491         -0.86931879        0.002296
      1492         -0.86931919        0.002296
      1493         -0.86931970        0.002296
      1494         -0.86931988        0.002296
      1495         -0.86932019        0.002296
      1496         -0.86932048        0.002296
      1497         -0.86932066        0.002296
      1498         -0.86932096        0.002296
      1499         -0.86932104        0.002296
      1500         -0.86932151        0.002296
      1501         -0.86932173        0.002296
      1502         -0.86932211        0.002296
      1503         -0.86932219        0.002296
      1504         -0.86932240        0.002296
      1505         -0.86932268        0.002296
      1506         -0.86932288        0.002296
      1507         -0.86932348        0.002296
      1508         -0.86932349        0.002296
      1509         -0.86932372        0.002296
      1510         -0.86932404        0.002296
      1511         -0.86932490        0.002296
      1512         -0.86932505        0.002296
      1513         -0.86932531        0.002296
      1514         -0.86932548        0.002296
      1515         -0.86932585        0.002296
      1516         -0.86932600        0.002296
      1517         -0.86932618        0.002296
      1518         -0.86932629        0.002296
      1519         -0.86932666        0.002296
      1520         -0.86932732        0.002296
      1521         -0.86932777        0.002296
      1522         -0.86932830        0.002296
      1523         -0.86932861        0.002296
      1524         -0.86932869        0.002296
      1525         -0.86932945        0.002296
      1526         -0.86932966        0.002296
      1527         -0.86932995        0.002296
      1528         -0.86933013        0.002296
      1529         -0.86933050        0.002296
      1530         -0.86933053        0.002296
      1531         -0.86933056        0.002296
      1532         -0.86933090        0.002296
      1533         -0.86933128        0.002296
      1534         -0.86933167        0.002296
      1535         -0.86933216        0.002296
      1536         -0.86933245        0.002296
      1537         -0.86933248        0.002296
      1538         -0.86933273        0.002296
      1539         -0.86933300        0.002296
      1540         -0.86933305        0.002296
      1541         -0.86933330        0.002296
      1542         -0.86933375        0.002296
      1543         -0.86933386        0.002296
      1544         -0.86933409        0.002296
      1545         -0.86933429        0.002296
      1546         -0.86933487        0.002296
      1547         -0.86933495        0.002296
      1548         -0.86933578        0.002296
      1549         -0.86933595        0.002296
      1550         -0.86933624        0.002296
      1551         -0.86933637        0.002296
[...]
   2       0.28887,   -0.42393    -0.45839,    0.71427     0.00124,    0.05447    -0.02905,    0.02602     0.00947,    0.03486    -0.00998,    0.01434
   3       0.06231,    0.01016    -0.00226,    0.01323     0.33336,   -0.79473    -0.19464,    0.45513    -0.03288,    0.01992    -0.00670,   -0.04981
   4      -0.04866,    0.02087     0.01312,   -0.03826    -0.26774,    0.41416    -0.47175,    0.72543     0.01463,   -0.01984     0.02076,    0.00600
   5      -0.01152,   -0.03004     0.03886,    0.02789     0.03069,   -0.00064    -0.00613,    0.02493    -0.08320,    0.39366    -0.07763,    0.41206
   6      -0.03182,    0.00087     0.03556,   -0.02823     0.00565,    0.00831     0.01498,   -0.00174    -0.25840,    0.28386    -0.30660,    0.25327
   7       0.00412,    0.03188    -0.00635,   -0.03848     0.01960,    0.01550    -0.02778,    0.01061    -0.26774,    0.30252    -0.24439,    0.35813
   8      -0.00007,   -0.03152    -0.05984,   -0.00674    -0.01768,   -0.05072    -0.01026,    0.04045     0.04257,   -0.44893    -0.06727,    0.37055
   9       0.02305,    0.02267     0.03952,   -0.00138     0.00152,   -0.00618     0.01940,    0.01553     0.17191,   -0.31591    -0.18396,    0.37268
  10       0.00013,   -0.03212     0.01963,   -0.01610    -0.02256,   -0.04329    -0.01902,   -0.00569    -0.42406,   -0.10659     0.39251,    0.07528

                     7                       8                       9                      10  
       ----------------------- ----------------------- ----------------------- -----------------------
   1       0.01810,    0.03423     0.00143,   -0.02502    -0.00374,   -0.04397     0.00697,    0.02862
   2       0.02792,   -0.02196     0.07059,   -0.02386     0.01758,    0.00267    -0.02917,   -0.04957
   3       0.03569,   -0.00973    -0.02704,   -0.01236    -0.00659,    0.00321     0.00351,   -0.04195
   4       0.00166,   -0.02448     0.00102,    0.02225     0.01631,   -0.01174    -0.00790,   -0.03022
   5      -0.06970,    0.51241    -0.07037,    0.57324    -0.02941,    0.22986    -0.04268,    0.02949
   6      -0.02272,   -0.05700     0.21557,   -0.14960     0.43424,   -0.41265     0.37730,   -0.34246
   7       0.27643,   -0.37712     0.13656,   -0.28022    -0.15254,    0.20068    -0.31794,    0.40536
   8      -0.08481,    0.48075     0.03628,   -0.28895     0.08401,   -0.31633    -0.01892,    0.46365
   9      -0.03536,    0.02469     0.15900,   -0.24644    -0.26044,    0.53841     0.27977,   -0.41327
  10      -0.49743,   -0.13357     0.54935,    0.14233    -0.23166,   -0.05179    -0.01646,    0.02631

                   WFN1 Final beta Correlation Function Analysis
                   ---------------------------------------------


 global array: Cb[1:10,1:10],  handle: -980 

                     1                       2                       3                       4                       5                       6  
       ----------------------- ----------------------- ----------------------- ----------------------- ----------------------- -----------------------
   1       0.84938,    0.04961     0.51574,    0.01363    -0.02072,    0.06069    -0.01169,   -0.00018    -0.00729,    0.01509     0.01467,   -0.01537
   2       0.28887,   -0.42393    -0.45839,    0.71427     0.00124,    0.05447    -0.02905,    0.02602     0.00947,    0.03486    -0.00998,    0.01434
   3       0.06231,    0.01016    -0.00226,    0.01323     0.33336,   -0.79473    -0.19464,    0.45513    -0.03288,    0.01992    -0.00670,   -0.04981
   4      -0.04866,    0.02087     0.01312,   -0.03826    -0.26774,    0.41416    -0.47175,    0.72543     0.01463,   -0.01984     0.02076,    0.00600
   5      -0.01152,   -0.03004     0.03886,    0.02789     0.03069,   -0.00064    -0.00613,    0.02493    -0.08320,    0.39366    -0.07763,    0.41206
   6      -0.03182,    0.00087     0.03556,   -0.02823     0.00565,    0.00831     0.01498,   -0.00174    -0.25840,    0.28386    -0.30660,    0.25327
   7       0.00412,    0.03188    -0.00635,   -0.03848     0.01960,    0.01550    -0.02778,    0.01061    -0.26774,    0.30252    -0.24439,    0.35813
   8      -0.00007,   -0.03152    -0.05984,   -0.00674    -0.01768,   -0.05072    -0.01026,    0.04045     0.04257,   -0.44893    -0.06727,    0.37055
   9       0.02305,    0.02267     0.03952,   -0.00138     0.00152,   -0.00618     0.01940,    0.01553     0.17191,   -0.31591    -0.18396,    0.37268
  10       0.00013,   -0.03212     0.01963,   -0.01610    -0.02256,   -0.04329    -0.01902,   -0.00569    -0.42406,   -0.10659     0.39251,    0.07528

                     7                       8                       9                      10  
       ----------------------- ----------------------- ----------------------- -----------------------
   1       0.01810,    0.03423     0.00143,   -0.02502    -0.00374,   -0.04397     0.00697,    0.02862
   2       0.02792,   -0.02196     0.07059,   -0.02386     0.01758,    0.00267    -0.02917,   -0.04957
   3       0.03569,   -0.00973    -0.02704,   -0.01236    -0.00659,    0.00321     0.00351,   -0.04195
   4       0.00166,   -0.02448     0.00102,    0.02225     0.01631,   -0.01174    -0.00790,   -0.03022
   5      -0.06970,    0.51241    -0.07037,    0.57324    -0.02941,    0.22986    -0.04268,    0.02949
   6      -0.02272,   -0.05700     0.21557,   -0.14960     0.43424,   -0.41265     0.37730,   -0.34246
   7       0.27643,   -0.37712     0.13656,   -0.28022    -0.15254,    0.20068    -0.31794,    0.40536
   8      -0.08481,    0.48075     0.03628,   -0.28895     0.08401,   -0.31633    -0.01892,    0.46365
   9      -0.03536,    0.02469     0.15900,   -0.24644    -0.26044,    0.53841     0.27977,   -0.41327
  10      -0.49743,   -0.13357     0.54935,    0.14233    -0.23166,   -0.05179    -0.01646,    0.02631

                     WFN1 Final Alpha Natural Orbital Analysis
                     -----------------------------------------

 Vector    1  Occ=7.239013D-01  E= 0.000000D+00
              MO Center= -8.1D-05,  1.5D-04, -7.0D-03, r^2= 2.6D+00
   Bfn.  Coefficient  Atom+Function         Bfn.  Coefficient  Atom+Function  
  ----- ------------  ---------------      ----- ------------  ---------------
     2      0.513367  1 H  s                  7      0.510539  2 H  s          
     1      0.223815  1 H  s                  6      0.222513  2 H  s          

 Vector    2  Occ=2.631567D-01  E= 0.000000D+00
              MO Center= -1.3D-04,  9.8D-06,  6.7D-03, r^2= 2.8D+00
   Bfn.  Coefficient  Atom+Function         Bfn.  Coefficient  Atom+Function  
  ----- ------------  ---------------      ----- ------------  ---------------
     7     -0.527811  2 H  s                  2      0.524804  1 H  s          
     1      0.272659  1 H  s                  6     -0.273346  2 H  s          

 Vector    3  Occ=3.986399D-03  E= 0.000000D+00
              MO Center=  3.2D-03,  6.9D-03, -4.1D-02, r^2= 2.7D+00
   Bfn.  Coefficient  Atom+Function         Bfn.  Coefficient  Atom+Function  
  ----- ------------  ---------------      ----- ------------  ---------------
     1      0.908537  1 H  s                  6      0.877945  2 H  s          
     2     -0.716379  1 H  s                  7     -0.686931  2 H  s          

 Vector    4  Occ=2.803183D-03  E= 0.000000D+00
              MO Center=  2.7D-03,  9.9D-04,  4.5D-02, r^2= 3.3D+00
   Bfn.  Coefficient  Atom+Function         Bfn.  Coefficient  Atom+Function  
  ----- ------------  ---------------      ----- ------------  ---------------
     6     -0.933895  2 H  s                  1      0.904280  1 H  s          
     7      0.890528  2 H  s                  2     -0.867557  1 H  s          
     5      0.062010  1 H  pz                 8     -0.046825  2 H  px         
    10      0.043948  2 H  pz         

 Vector    5  Occ=1.035287D-03  E= 0.000000D+00
              MO Center= -2.6D-03, -3.4D-03,  1.0D-01, r^2= 2.1D+00
   Bfn.  Coefficient  Atom+Function         Bfn.  Coefficient  Atom+Function  
  ----- ------------  ---------------      ----- ------------  ---------------
     8     -0.680235  2 H  px                 4      0.582671  1 H  py         
     3     -0.346430  1 H  px                 9     -0.270962  2 H  py         
     6      0.047960  2 H  s                  7     -0.044361  2 H  s          
     1     -0.036902  1 H  s                  2      0.036546  1 H  s          
     5     -0.034929  1 H  pz                10      0.031110  2 H  pz         

 Vector    6  Occ=1.013466D-03  E= 0.000000D+00
              MO Center= -2.6D-03, -5.9D-03, -1.1D-01, r^2= 2.1D+00
   Bfn.  Coefficient  Atom+Function         Bfn.  Coefficient  Atom+Function  
  ----- ------------  ---------------      ----- ------------  ---------------
     4     -0.698781  1 H  py                 8     -0.569053  2 H  px         
     9     -0.365256  2 H  py                 3      0.229827  1 H  px         
     6      0.042650  2 H  s                  7     -0.034422  2 H  s          
     1      0.028093  1 H  s          

 Vector    7  Occ=1.033172D-03  E= 0.000000D+00
              MO Center= -1.3D-03, -6.1D-04,  1.1D-01, r^2= 2.1D+00
   Bfn.  Coefficient  Atom+Function         Bfn.  Coefficient  Atom+Function  
  ----- ------------  ---------------      ----- ------------  ---------------
     3      0.644349  1 H  px                 9      0.620045  2 H  py         
     8     -0.393855  2 H  px                 4      0.208394  1 H  py         
     5     -0.040030  1 H  pz         

 Vector    8  Occ=9.936545D-04  E= 0.000000D+00
              MO Center=  8.8D-04,  1.9D-03, -1.0D-01, r^2= 2.1D+00
   Bfn.  Coefficient  Atom+Function         Bfn.  Coefficient  Atom+Function  
  ----- ------------  ---------------      ----- ------------  ---------------
     3     -0.641112  1 H  px                 9      0.637888  2 H  py         
     4     -0.354760  1 H  py                 8     -0.232248  2 H  px         
    10     -0.043855  2 H  pz         

 Vector    9  Occ=1.045074D-03  E= 0.000000D+00
              MO Center= -5.2D-05, -1.3D-04, -2.5D-02, r^2= 2.1D+00
   Bfn.  Coefficient  Atom+Function         Bfn.  Coefficient  Atom+Function  
  ----- ------------  ---------------      ----- ------------  ---------------
     5      0.712088  1 H  pz                10     -0.699089  2 H  pz         
     7     -0.052821  2 H  s                  6      0.045509  2 H  s          
     4      0.044080  1 H  py                 8     -0.036216  2 H  px         
     2     -0.025409  1 H  s          

 Vector   10  Occ=1.031770D-03  E= 0.000000D+00
              MO Center= -3.1D-05,  1.0D-04,  2.4D-02, r^2= 2.2D+00
   Bfn.  Coefficient  Atom+Function         Bfn.  Coefficient  Atom+Function  
  ----- ------------  ---------------      ----- ------------  ---------------
    10     -0.711765  2 H  pz                 5     -0.697747  1 H  pz         
     2     -0.103709  1 H  s                  1      0.096950  1 H  s          
     7      0.089910  2 H  s                  6     -0.079731  2 H  s          
     9     -0.032752  2 H  py         


                     WFN1 Final Beta Natural Orbital Analysis
                     ----------------------------------------

 Vector    1  Occ=7.239013D-01  E= 0.000000D+00
              MO Center= -8.1D-05,  1.5D-04, -7.0D-03, r^2= 2.6D+00
   Bfn.  Coefficient  Atom+Function         Bfn.  Coefficient  Atom+Function  
  ----- ------------  ---------------      ----- ------------  ---------------
     2      0.513367  1 H  s                  7      0.510539  2 H  s          
     1      0.223815  1 H  s                  6      0.222513  2 H  s          

 Vector    2  Occ=2.631567D-01  E= 0.000000D+00
              MO Center= -1.3D-04,  9.8D-06,  6.7D-03, r^2= 2.8D+00
   Bfn.  Coefficient  Atom+Function         Bfn.  Coefficient  Atom+Function  
  ----- ------------  ---------------      ----- ------------  ---------------
     7     -0.527811  2 H  s                  2      0.524804  1 H  s          
     1      0.272659  1 H  s                  6     -0.273346  2 H  s          

 Vector    3  Occ=3.986399D-03  E= 0.000000D+00
              MO Center=  3.2D-03,  6.9D-03, -4.1D-02, r^2= 2.7D+00
   Bfn.  Coefficient  Atom+Function         Bfn.  Coefficient  Atom+Function  
  ----- ------------  ---------------      ----- ------------  ---------------
     1      0.908537  1 H  s                  6      0.877945  2 H  s          
     2     -0.716379  1 H  s                  7     -0.686931  2 H  s          

 Vector    4  Occ=2.803183D-03  E= 0.000000D+00
              MO Center=  2.7D-03,  9.9D-04,  4.5D-02, r^2= 3.3D+00
   Bfn.  Coefficient  Atom+Function         Bfn.  Coefficient  Atom+Function  
  ----- ------------  ---------------      ----- ------------  ---------------
     6     -0.933895  2 H  s                  1      0.904280  1 H  s          
     7      0.890528  2 H  s                  2     -0.867557  1 H  s          
     5      0.062010  1 H  pz                 8     -0.046825  2 H  px         
    10      0.043948  2 H  pz         

 Vector    5  Occ=1.035287D-03  E= 0.000000D+00
              MO Center= -2.6D-03, -3.4D-03,  1.0D-01, r^2= 2.1D+00
   Bfn.  Coefficient  Atom+Function         Bfn.  Coefficient  Atom+Function  
  ----- ------------  ---------------      ----- ------------  ---------------
     8     -0.680235  2 H  px                 4      0.582671  1 H  py         
     3     -0.346430  1 H  px                 9     -0.270962  2 H  py         
     6      0.047960  2 H  s                  7     -0.044361  2 H  s          
     1     -0.036902  1 H  s                  2      0.036546  1 H  s          
     5     -0.034929  1 H  pz                10      0.031110  2 H  pz         

 Vector    6  Occ=1.013466D-03  E= 0.000000D+00
              MO Center= -2.6D-03, -5.9D-03, -1.1D-01, r^2= 2.1D+00
   Bfn.  Coefficient  Atom+Function         Bfn.  Coefficient  Atom+Function  
  ----- ------------  ---------------      ----- ------------  ---------------
     4     -0.698781  1 H  py                 8     -0.569053  2 H  px         
     9     -0.365256  2 H  py                 3      0.229827  1 H  px         
     6      0.042650  2 H  s                  7     -0.034422  2 H  s          
     1      0.028093  1 H  s          

 Vector    7  Occ=1.033172D-03  E= 0.000000D+00
              MO Center= -1.3D-03, -6.1D-04,  1.1D-01, r^2= 2.1D+00
   Bfn.  Coefficient  Atom+Function         Bfn.  Coefficient  Atom+Function  
  ----- ------------  ---------------      ----- ------------  ---------------
     3      0.644349  1 H  px                 9      0.620045  2 H  py         
     8     -0.393855  2 H  px                 4      0.208394  1 H  py         
     5     -0.040030  1 H  pz         

 Vector    8  Occ=9.936545D-04  E= 0.000000D+00
              MO Center=  8.8D-04,  1.9D-03, -1.0D-01, r^2= 2.1D+00
   Bfn.  Coefficient  Atom+Function         Bfn.  Coefficient  Atom+Function  
  ----- ------------  ---------------      ----- ------------  ---------------
     3     -0.641112  1 H  px                 9      0.637888  2 H  py         
     4     -0.354760  1 H  py                 8     -0.232248  2 H  px         
    10     -0.043855  2 H  pz         

 Vector    9  Occ=1.045074D-03  E= 0.000000D+00
              MO Center= -5.2D-05, -1.3D-04, -2.5D-02, r^2= 2.1D+00
   Bfn.  Coefficient  Atom+Function         Bfn.  Coefficient  Atom+Function  
  ----- ------------  ---------------      ----- ------------  ---------------
     5      0.712088  1 H  pz                10     -0.699089  2 H  pz         
     7     -0.052821  2 H  s                  6      0.045509  2 H  s          
     4      0.044080  1 H  py                 8     -0.036216  2 H  px         
     2     -0.025409  1 H  s          

 Vector   10  Occ=1.031770D-03  E= 0.000000D+00
              MO Center= -3.1D-05,  1.0D-04,  2.4D-02, r^2= 2.2D+00
   Bfn.  Coefficient  Atom+Function         Bfn.  Coefficient  Atom+Function  
  ----- ------------  ---------------      ----- ------------  ---------------
    10     -0.711765  2 H  pz                 5     -0.697747  1 H  pz         
     2     -0.103709  1 H  s                  1      0.096950  1 H  s          
     7      0.089910  2 H  s                  6     -0.079731  2 H  s          
     9     -0.032752  2 H  py         


 Task  times  cpu:     2603.4s     wall:     3049.4s
 Summary of allocated global arrays
-----------------------------------
  No active global arrays



                         GA Statistics for process    0
                         ------------------------------

       create   destroy   get      put      acc     scatter   gather  read&inc
calls:   44       44     7.44e+08 3.20e+05 4.24e+05    0        0       11     
number of processes/call 1.00e+00 1.00e+00 1.00e+00 0.00e+00 0.00e+00
bytes total:             5.95e+11 3.39e+08 4.24e+08 0.00e+00 0.00e+00 8.80e+01
bytes remote:            0.00e+00 0.00e+00 0.00e+00 0.00e+00 0.00e+00 0.00e+00
Max memory consumed for GA by this process: 268000 bytes
MA_summarize_allocated_blocks: starting scan ...
MA_summarize_allocated_blocks: scan completed: 0 heap blocks, 0 stack blocks
MA usage statistics:

	allocation statistics:
					      heap	     stack
					      ----	     -----
	current number of blocks	         0	         0
	maximum number of blocks	        19	        17
	current total bytes		         0	         0
	maximum total bytes		   3205416	  22508616
	maximum total K-bytes		      3206	     22509
	maximum total M-bytes		         4	        23


                                NWChem Input Module
                                -------------------





                                     CITATION
                                     --------
                Please cite the following reference when publishing
                           results obtained with NWChem:

                 M. Valiev, E.J. Bylaska, N. Govind, K. Kowalski,
              T.P. Straatsma, H.J.J. van Dam, D. Wang, J. Nieplocha,
                        E. Apra, T.L. Windus, W.A. de Jong
                 "NWChem: a comprehensive and scalable open-source
                  solution for large scale molecular simulations"
                      Comput. Phys. Commun. 181, 1477 (2010)
                           doi:10.1016/j.cpc.2010.04.018

                                      AUTHORS
                                      -------
          E. Apra, E. J. Bylaska, W. A. de Jong, N. Govind, K. Kowalski,
       T. P. Straatsma, M. Valiev, H. J. J. van Dam, D. Wang, T. L. Windus,
        J. Hammond, J. Autschbach, K. Bhaskaran-Nair, J. Brabec, K. Lopata,
    S. A. Fischer, S. Krishnamoorthy, M. Jacquelin, W. Ma, M. Klemm, O. Villa,
      Y. Chen, V. Anisimov, F. Aquino, S. Hirata, M. T. Hackler, V. Konjkov,
      T. Risthaus, M. Malagoli, A. Marenich, A. Otero-de-la-Roza, J. Mullin,
        P. Nichols, R. Peverati, J. Pittner, Y. Zhao, P.-D. Fan, A. Fonari,
       M. Williamson, R. J. Harrison, J. R. Rehr, M. Dupuis, D. Silverstein,
    D. M. A. Smith, J. Nieplocha, V. Tipparaju, M. Krishnan, B. E. Van Kuiken,
        A. Vazquez-Mayagoitia, L. Jensen, M. Swart, Q. Wu, T. Van Voorhis,
     A. A. Auer, M. Nooijen, L. D. Crosby, E. Brown, G. Cisneros, G. I. Fann,
   H. Fruchtl, J. Garza, K. Hirao, R. A. Kendall, J. A. Nichols, K. Tsemekhman,
    K. Wolinski, J. Anchell, D. E. Bernholdt, P. Borowski, T. Clark, D. Clerc,
   H. Dachsel, M. J. O. Deegan, K. Dyall, D. Elwood, E. Glendening, M. Gutowski,
   A. C. Hess, J. Jaffe, B. G. Johnson, J. Ju, R. Kobayashi, R. Kutteh, Z. Lin,
   R. Littlefield, X. Long, B. Meng, T. Nakajima, S. Niu, L. Pollack, M. Rosing,
   K. Glaesemann, G. Sandrone, M. Stave, H. Taylor, G. Thomas, J. H. van Lenthe,
                               A. T. Wong, Z. Zhang.

 Total times  cpu:     2603.4s     wall:     3049.4s
