 argument  1 = input-wf.nw



============================== echo of input deck ==============================
echo
start wfn1_dat
geometry units au noautoz
  H 0 0 -2.09434600000000000000
  H 0 0  2.09434600000000000000
  symmetry cs
end
basis
  H library 6-31g**
end
set wfn1:input_vectors "atomic"
set wfn1:solver "monte-carlo"
set wfn1:print_error F
set wfn1:t_initial 0.1
#set wfn1:corr_expr "wfn1_mx"
set wfn1:corr_expr "wfn1c"
set wfn1:t_bath 0.0
set wfn1:maxit  20000
task wfn1 energy
================================================================================


                                         
                                         


              Northwest Computational Chemistry Package (NWChem) 6.8
              ------------------------------------------------------


                    Environmental Molecular Sciences Laboratory
                       Pacific Northwest National Laboratory
                                Richland, WA 99352

                              Copyright (c) 1994-2015
                       Pacific Northwest National Laboratory
                            Battelle Memorial Institute

             NWChem is an open-source computational chemistry package
                        distributed under the terms of the
                      Educational Community License (ECL) 2.0
             A copy of the license is included with this distribution
                              in the LICENSE.TXT file

                                  ACKNOWLEDGMENT
                                  --------------

            This software and its documentation were developed at the
            EMSL at Pacific Northwest National Laboratory, a multiprogram
            national laboratory, operated for the U.S. Department of Energy
            by Battelle under Contract Number DE-AC05-76RL01830. Support
            for this work was provided by the Department of Energy Office
            of Biological and Environmental Research, Office of Basic
            Energy Sciences, and the Office of Advanced Scientific Computing.


           Job information
           ---------------

    hostname        = erato
    program         = ../../../bin/LINUX64/nwchem
    date            = Mon Mar  1 22:38:17 2021

    compiled        = Sun_Feb_28_18:02:42_2021
    source          = /home/hvandam/nwchem-1-wfn1
    nwchem branch   = Development
    nwchem revision = nwchem_on_git-124-gad72d19fff205e319ffbbf2bca37a04ded6ad57b
    ga revision     = nwchem_on_git-124-gad72d19
    use scalapack   = F
    input           = input-wf.nw
    prefix          = wfn1_dat.
    data base       = ./wfn1_dat.db
    status          = startup
    nproc           =        1
    time left       =     -1s



           Memory information
           ------------------

    heap     =   13107198 doubles =    100.0 Mbytes
    stack    =   13107195 doubles =    100.0 Mbytes
    global   =   26214400 doubles =    200.0 Mbytes (distinct from heap & stack)
    total    =   52428793 doubles =    400.0 Mbytes
    verify   = yes
    hardfail = no 


           Directory information
           ---------------------

  0 permanent = .
  0 scratch   = .




                                NWChem Input Module
                                -------------------


 Turning off AUTOSYM since
 SYMMETRY directive was detected!



                             Geometry "geometry" -> ""
                             -------------------------

 Output coordinates in a.u. (scale by  1.000000000 to convert to a.u.)

  No.       Tag          Charge          X              Y              Z
 ---- ---------------- ---------- -------------- -------------- --------------
    1 H                    1.0000     0.00000000     0.00000000    -2.09434600
    2 H                    1.0000     0.00000000     0.00000000     2.09434600

      Atomic Mass 
      ----------- 

      H                  1.007825


 Effective nuclear repulsion energy (a.u.)       0.2387380118

            Nuclear Dipole moment (a.u.) 
            ----------------------------
        X                 Y               Z
 ---------------- ---------------- ----------------
     0.0000000000     0.0000000000     0.0000000000

      Symmetry information
      --------------------

 Group name             Cs        
 Group number              2
 Group order               2
 No. of unique centers     1

      Symmetry unique atoms

     1


            XYZ format geometry
            -------------------
     2
 geometry
 H                     0.00000000     0.00000000    -1.10828025
 H                     0.00000000     0.00000000     1.10828025

                      Basis "ao basis" -> "" (cartesian)
                      -----
  H (Hydrogen)
  ------------
            Exponent  Coefficients 
       -------------- ---------------------------------------------------------
  1 S  1.87311370E+01  0.033495
  1 S  2.82539370E+00  0.234727
  1 S  6.40121700E-01  0.813757

  2 S  1.61277800E-01  1.000000

  3 P  1.10000000E+00  1.000000



 Summary of "ao basis" -> "" (cartesian)
 ------------------------------------------------------------------------------
       Tag                 Description            Shells   Functions and Types
 ---------------- ------------------------------  ------  ---------------------
 H                          6-31g**                  3        5   2s1p



                                NWChem WFN1 Module
                                ------------------



          No. of electrons :     2
           Alpha electrons :     1
            Beta electrons :     1
          Charge           :     0
          Spin multiplicity:     1

 HvD: wfn1_inpdft
 HvD: nquad_task =                     1
 HvD: iangquad   =                     0
 HvD: gridtype   = user      
 HvD: leb        =  T
 HvD: radgrid    = murakn    
 HvD: trunc_neigh=  T
 HvD: lssw       =  T
 HvD: whichssw   = erf1    
 HvD: mxnrad     =                     0
 HvD: mxnang     =                     0
 HVD: wfn1: movecs_in  = atomic                                                                                                                                                                                                                                                          
 HVD: wfn1: movecs_out = ./wfn1_dat.movecs                                                                                                                                                                                                                                               

      Superposition of Atomic Density Guess
      -------------------------------------

 Sum of atomic energies:          -0.99646508

      Non-variational initial energy
      ------------------------------

 Total energy =      -0.688172
 1-e energy   =      -1.473780
 2-e energy   =       0.546869
 HOMO         =      -0.248100
 LUMO         =      -0.128605

 iteration              energy           error
 ---------              ------           -----
         0         -0.87881475        0.200000
         1         -0.88802331        0.200000
         2         -0.89128243        0.200000
         3         -0.89433785        0.200000
         4         -0.89502931        0.200000
         5         -0.89507748        0.200000
         6         -0.89636492        0.200000
         7         -0.89639216        0.200000
         8         -0.89863945        0.200000
         9         -0.89910598        0.200000
        10         -0.89984969        0.200000
        11         -0.89986182        0.200000
        12         -0.90089940        0.200000
        13         -0.90200878        0.200000
        14         -0.90209862        0.200000
        15         -0.90236635        0.200000
        16         -0.90273430        0.200000
        17         -0.90319378        0.200000
        18         -0.90339423        0.200000
        19         -0.90351163        0.200000
        20         -0.90391491        0.200000
        21         -0.90451477        0.171449
        22         -0.90462162        0.171449
        23         -0.90499636        0.171449
        24         -0.90593495        0.171449
        25         -0.90626299        0.171449
        26         -0.90641671        0.171449
        27         -0.90646693        0.158740
        28         -0.90705110        0.158740
        29         -0.90738126        0.146973
        30         -0.90744525        0.146973
        31         -0.90750847        0.125992
        32         -0.90762972        0.116653
        33         -0.90766795        0.116653
        34         -0.90774963        0.116653
        35         -0.90795250        0.116653
        36         -0.90803746        0.116653
        37         -0.90834256        0.108006
        38         -0.90871359        0.100000
        39         -0.90876325        0.085724
        40         -0.90881881        0.085724
        41         -0.90883901        0.085724
        42         -0.90887727        0.085724
        43         -0.90893064        0.085724
        44         -0.90896238        0.085724
        45         -0.90905704        0.085724
        46         -0.90911472        0.085724
        47         -0.90917606        0.085724
        48         -0.90919184        0.085724
        49         -0.90928068        0.068040
        50         -0.90928650        0.062996
        51         -0.90931360        0.062996
        52         -0.90932800        0.062996
        53         -0.90946279        0.062996
        54         -0.90947317        0.062996
        55         -0.90952277        0.062996
        56         -0.90952654        0.062996
        57         -0.90952791        0.058326
        58         -0.90957111        0.058326
        59         -0.90957283        0.058326
        60         -0.90965245        0.058326
        61         -0.90966262        0.058326
        62         -0.90974244        0.058326
        63         -0.90974554        0.058326
        64         -0.90975815        0.058326
        65         -0.90981757        0.058326
        66         -0.90987205        0.058326
        67         -0.90990359        0.046294
        68         -0.90990550        0.046294
        69         -0.90991730        0.046294
        70         -0.90993951        0.046294
        71         -0.91000864        0.046294
        72         -0.91005067        0.046294
        73         -0.91007243        0.046294
        74         -0.91009992        0.042862
        75         -0.91014329        0.042862
        76         -0.91017386        0.042862
        77         -0.91017474        0.039685
        78         -0.91017601        0.039685
        79         -0.91018153        0.039685
        80         -0.91018483        0.039685
        81         -0.91022902        0.036743
        82         -0.91023665        0.036743
        83         -0.91024902        0.036743
        84         -0.91028373        0.036743
        85         -0.91030394        0.036743
        86         -0.91032420        0.036743
        87         -0.91033124        0.036743
        88         -0.91034093        0.036743
        89         -0.91034880        0.036743
        90         -0.91035086        0.036743
        91         -0.91037904        0.036743
        92         -0.91038804        0.036743
        93         -0.91039270        0.036743
        94         -0.91039693        0.036743
        95         -0.91041312        0.034020
        96         -0.91042459        0.034020
        97         -0.91042562        0.034020
        98         -0.91042803        0.031498
        99         -0.91044037        0.029163
       100         -0.91044537        0.029163
       101         -0.91045302        0.029163
       102         -0.91045632        0.029163
       103         -0.91045948        0.029163
       104         -0.91046491        0.029163
       105         -0.91047211        0.027001
       106         -0.91049488        0.027001
       107         -0.91050445        0.027001
       108         -0.91051942        0.027001
       109         -0.91052249        0.027001
       110         -0.91054297        0.027001
       111         -0.91054998        0.025000
       112         -0.91055000        0.025000
       113         -0.91056503        0.025000
       114         -0.91057621        0.025000
       115         -0.91058192        0.025000
       116         -0.91058611        0.025000
       117         -0.91059667        0.023147
       118         -0.91060704        0.021431
       119         -0.91061288        0.021431
       120         -0.91061982        0.021431
       121         -0.91062520        0.021431
       122         -0.91063095        0.021431
       123         -0.91063244        0.021431
       124         -0.91064571        0.021431
       125         -0.91065012        0.021431
       126         -0.91065256        0.021431
       127         -0.91065870        0.021431
       128         -0.91066817        0.019843
       129         -0.91066818        0.019843
       130         -0.91066994        0.019843
       131         -0.91068776        0.019843
       132         -0.91069894        0.019843
       133         -0.91070384        0.019843
       134         -0.91072202        0.019843
       135         -0.91073463        0.019843
       136         -0.91073794        0.019843
       137         -0.91074240        0.019843
       138         -0.91074409        0.019843
       139         -0.91076071        0.019843
       140         -0.91076214        0.019843
       141         -0.91077176        0.019843
       142         -0.91077512        0.019843
       143         -0.91078217        0.019843
       144         -0.91079183        0.019843
       145         -0.91079457        0.019843
       146         -0.91081222        0.019843
       147         -0.91081661        0.019843
       148         -0.91081768        0.019843
       149         -0.91081886        0.019843
       150         -0.91083071        0.019843
       151         -0.91085065        0.019843
       152         -0.91085555        0.019843
       153         -0.91086009        0.019843
       154         -0.91086075        0.019843
       155         -0.91088562        0.019843
       156         -0.91089189        0.019843
       157         -0.91089266        0.019843
       158         -0.91090120        0.019843
       159         -0.91090121        0.019843
       160         -0.91091441        0.019843
       161         -0.91091695        0.019843
       162         -0.91092328        0.019843
       163         -0.91093401        0.019843
       164         -0.91096953        0.019843
       165         -0.91098191        0.019843
       166         -0.91098402        0.019843
       167         -0.91098657        0.019843
       168         -0.91098847        0.019843
       169         -0.91098881        0.019843
       170         -0.91099408        0.019843
       171         -0.91100406        0.019843
       172         -0.91101047        0.019843
       173         -0.91101376        0.019843
       174         -0.91101698        0.019843
       175         -0.91102989        0.019843
       176         -0.91103813        0.019843
       177         -0.91104627        0.019843
       178         -0.91105076        0.019843
       179         -0.91106196        0.019843
       180         -0.91106354        0.019843
       181         -0.91108429        0.019843
       182         -0.91109352        0.019843
       183         -0.91110465        0.019843
       184         -0.91110713        0.019843
       185         -0.91113257        0.019843
       186         -0.91114680        0.018372
       187         -0.91115464        0.018372
       188         -0.91115637        0.018372
       189         -0.91117462        0.018372
       190         -0.91118248        0.018372
       191         -0.91118268        0.018372
       192         -0.91118674        0.018372
       193         -0.91118899        0.018372
       194         -0.91119730        0.018372
       195         -0.91120289        0.018372
       196         -0.91121534        0.018372
       197         -0.91122907        0.018372
       198         -0.91123732        0.018372
       199         -0.91123869        0.018372
       200         -0.91124854        0.018372
       201         -0.91124863        0.018372
       202         -0.91125207        0.018372
       203         -0.91126173        0.018372
       204         -0.91128298        0.018372
       205         -0.91128551        0.018372
       206         -0.91129589        0.018372
       207         -0.91130229        0.018372
       208         -0.91131001        0.018372
       209         -0.91132919        0.018372
       210         -0.91133755        0.018372
       211         -0.91133887        0.018372
       212         -0.91134701        0.018372
       213         -0.91135518        0.018372
       214         -0.91136170        0.018372
       215         -0.91136431        0.018372
       216         -0.91136848        0.018372
       217         -0.91137174        0.017010
       218         -0.91138222        0.017010
       219         -0.91140526        0.017010
       220         -0.91140564        0.017010
       221         -0.91141507        0.017010
       222         -0.91141879        0.017010
       223         -0.91141920        0.017010
       224         -0.91142110        0.017010
       225         -0.91143519        0.017010
       226         -0.91144487        0.017010
       227         -0.91145215        0.017010
       228         -0.91145899        0.017010
       229         -0.91146107        0.017010
       230         -0.91146687        0.017010
       231         -0.91147453        0.017010
       232         -0.91147472        0.017010
       233         -0.91149052        0.017010
       234         -0.91150249        0.017010
       235         -0.91151536        0.017010
       236         -0.91152194        0.015749
       237         -0.91152536        0.015749
       238         -0.91152835        0.015749
       239         -0.91153205        0.015749
       240         -0.91153402        0.015749
       241         -0.91153973        0.015749
       242         -0.91155189        0.015749
       243         -0.91155598        0.015749
       244         -0.91155884        0.015749
       245         -0.91156678        0.015749
       246         -0.91156999        0.015749
       247         -0.91157394        0.015749
       248         -0.91157694        0.015749
       249         -0.91159042        0.015749
       250         -0.91160434        0.015749
       251         -0.91160710        0.015749
       252         -0.91160919        0.015749
       253         -0.91161626        0.015749
       254         -0.91161761        0.015749
       255         -0.91162117        0.015749
       256         -0.91162220        0.015749
       257         -0.91162443        0.015749
       258         -0.91162977        0.015749
       259         -0.91163852        0.015749
       260         -0.91164039        0.015749
       261         -0.91164510        0.015749
       262         -0.91164835        0.015749
       263         -0.91165176        0.015749
       264         -0.91166527        0.015749
       265         -0.91167634        0.015749
       266         -0.91168050        0.015749
       267         -0.91168737        0.015749
       268         -0.91168819        0.015749
       269         -0.91169746        0.015749
       270         -0.91169942        0.014582
       271         -0.91171111        0.014582
       272         -0.91171476        0.014582
       273         -0.91171973        0.014582
       274         -0.91172965        0.014582
       275         -0.91173100        0.014582
       276         -0.91173766        0.014582
       277         -0.91173782        0.014582
       278         -0.91174423        0.014582
       279         -0.91174751        0.014582
       280         -0.91175562        0.014582
       281         -0.91176059        0.014582
       282         -0.91176163        0.014582
       283         -0.91176406        0.014582
       284         -0.91176891        0.014582
       285         -0.91178583        0.014582
       286         -0.91178728        0.014582
       287         -0.91179712        0.014582
       288         -0.91180843        0.014582
       289         -0.91180882        0.014582
       290         -0.91180960        0.014582
       291         -0.91181368        0.014582
       292         -0.91182494        0.014582
       293         -0.91182644        0.014582
       294         -0.91183490        0.014582
       295         -0.91184169        0.014582
       296         -0.91184516        0.014582
       297         -0.91185202        0.014582
       298         -0.91185442        0.014582
       299         -0.91185706        0.014582
       300         -0.91186002        0.014582
       301         -0.91186466        0.014582
       302         -0.91186517        0.014582
       303         -0.91186642        0.013501
       304         -0.91186980        0.013501
       305         -0.91187581        0.013501
       306         -0.91188080        0.013501
       307         -0.91188357        0.013501
       308         -0.91188957        0.013501
       309         -0.91189330        0.013501
       310         -0.91189616        0.013501
       311         -0.91190664        0.013501
       312         -0.91190856        0.013501
       313         -0.91191089        0.013501
       314         -0.91191157        0.013501
       315         -0.91191875        0.013501
       316         -0.91191958        0.012500
       317         -0.91192056        0.012500
       318         -0.91193637        0.012500
       319         -0.91194631        0.012500
       320         -0.91195550        0.012500
       321         -0.91196154        0.012500
       322         -0.91196811        0.012500
       323         -0.91197101        0.012500
       324         -0.91197950        0.012500
       325         -0.91198588        0.012500
       326         -0.91198598        0.012500
       327         -0.91199058        0.012500
       328         -0.91199474        0.012500
       329         -0.91199509        0.012500
       330         -0.91200021        0.012500
       331         -0.91200197        0.012500
       332         -0.91201090        0.012500
       333         -0.91201628        0.012500
       334         -0.91201675        0.012500
       335         -0.91201732        0.012500
       336         -0.91202394        0.012500
       337         -0.91202470        0.012500
       338         -0.91203740        0.012500
       339         -0.91203987        0.012500
       340         -0.91204106        0.011573
       341         -0.91204417        0.011573
       342         -0.91204429        0.011573
       343         -0.91204492        0.011573
       344         -0.91204894        0.011573
       345         -0.91204918        0.011573
       346         -0.91205436        0.011573
       347         -0.91205493        0.011573
       348         -0.91205984        0.011573
       349         -0.91206194        0.011573
       350         -0.91206328        0.011573
       351         -0.91206587        0.011573
       352         -0.91206746        0.011573
       353         -0.91206965        0.011573
       354         -0.91207572        0.011573
       355         -0.91207885        0.011573
       356         -0.91208070        0.011573
       357         -0.91208493        0.011573
       358         -0.91208660        0.011573
       359         -0.91208688        0.011573
       360         -0.91208713        0.011573
       361         -0.91209432        0.011573
       362         -0.91209741        0.011573
       363         -0.91210154        0.011573
       364         -0.91210661        0.011573
       365         -0.91211350        0.011573
       366         -0.91211393        0.011573
       367         -0.91211852        0.011573
       368         -0.91212291        0.011573
       369         -0.91212541        0.011573
       370         -0.91212597        0.011573
       371         -0.91213149        0.011573
       372         -0.91213414        0.011573
       373         -0.91214387        0.011573
       374         -0.91214521        0.011573
       375         -0.91214980        0.011573
       376         -0.91215499        0.011573
       377         -0.91215694        0.011573
       378         -0.91216246        0.011573
       379         -0.91216766        0.011573
       380         -0.91216810        0.011573
       381         -0.91216848        0.011573
       382         -0.91217263        0.011573
       383         -0.91217642        0.011573
       384         -0.91217662        0.011573
       385         -0.91218622        0.011573
       386         -0.91218776        0.011573
       387         -0.91219007        0.011573
       388         -0.91219673        0.011573
       389         -0.91219737        0.011573
       390         -0.91220462        0.011573
       391         -0.91220579        0.011573
       392         -0.91220611        0.011573
       393         -0.91221297        0.011573
       394         -0.91221816        0.011573
       395         -0.91222304        0.011573
       396         -0.91222675        0.011573
       397         -0.91222691        0.011573
       398         -0.91222975        0.011573
       399         -0.91223607        0.011573
       400         -0.91224213        0.011573
       401         -0.91224218        0.011573
       402         -0.91224532        0.011573
       403         -0.91224947        0.011573
       404         -0.91225474        0.011573
       405         -0.91225565        0.011573
       406         -0.91225882        0.011573
       407         -0.91225939        0.011573
       408         -0.91226000        0.011573
       409         -0.91226489        0.011573
       410         -0.91226782        0.011573
       411         -0.91227163        0.011573
       412         -0.91227513        0.011573
       413         -0.91228325        0.011573
       414         -0.91229499        0.011573
       415         -0.91229982        0.011573
       416         -0.91230600        0.011573
       417         -0.91231309        0.011573
       418         -0.91231452        0.011573
       419         -0.91231613        0.010716
       420         -0.91232304        0.010716
       421         -0.91232444        0.010716
       422         -0.91232583        0.010716
       423         -0.91232724        0.010716
       424         -0.91233664        0.010716
       425         -0.91233829        0.010716
       426         -0.91233959        0.010716
       427         -0.91233987        0.010716
       428         -0.91234027        0.010716
       429         -0.91234057        0.010716
       430         -0.91234811        0.010716
       431         -0.91234942        0.010716
       432         -0.91235444        0.010716
       433         -0.91235542        0.010716
       434         -0.91235678        0.009921
       435         -0.91235688        0.009921
       436         -0.91236242        0.009921
       437         -0.91236565        0.009921
       438         -0.91237602        0.009921
       439         -0.91238425        0.009921
       440         -0.91238519        0.009921
       441         -0.91238977        0.009921
       442         -0.91239552        0.009921
       443         -0.91239866        0.009921
       444         -0.91239877        0.009921
       445         -0.91240170        0.009921
       446         -0.91240572        0.009921
       447         -0.91240587        0.009921
       448         -0.91240598        0.009921
       449         -0.91240721        0.009921
       450         -0.91241007        0.009921
       451         -0.91241515        0.009921
       452         -0.91241571        0.009921
       453         -0.91242033        0.009921
       454         -0.91242192        0.009921
       455         -0.91242635        0.009921
       456         -0.91243913        0.009921
       457         -0.91244131        0.009921
       458         -0.91244265        0.009921
       459         -0.91244334        0.009921
       460         -0.91245035        0.009921
       461         -0.91245345        0.009921
       462         -0.91246278        0.009921
       463         -0.91246289        0.009921
       464         -0.91246721        0.009921
       465         -0.91246989        0.009921
       466         -0.91247421        0.009921
       467         -0.91247766        0.009921
       468         -0.91248350        0.009921
       469         -0.91248694        0.009921
       470         -0.91249145        0.009921
       471         -0.91249343        0.009921
       472         -0.91249657        0.009921
       473         -0.91249780        0.009921
       474         -0.91249995        0.009921
       475         -0.91250402        0.009921
       476         -0.91250590        0.009921
       477         -0.91250600        0.009921
       478         -0.91250999        0.009921
       479         -0.91251131        0.009921
       480         -0.91251148        0.009921
       481         -0.91251279        0.009921
       482         -0.91251378        0.009921
       483         -0.91252163        0.009921
       484         -0.91252418        0.009921
       485         -0.91252437        0.009921
       486         -0.91252529        0.009921
       487         -0.91252940        0.009921
       488         -0.91253124        0.009921
       489         -0.91253307        0.009921
       490         -0.91253357        0.009921
       491         -0.91253637        0.009921
       492         -0.91253813        0.009921
       493         -0.91253998        0.009921
       494         -0.91254106        0.009921
       495         -0.91254420        0.009921
       496         -0.91255093        0.009921
       497         -0.91255142        0.009921
       498         -0.91255287        0.009921
       499         -0.91255681        0.009921
       500         -0.91255990        0.009921
       501         -0.91256254        0.009921
       502         -0.91256814        0.009921
       503         -0.91257238        0.009921
       504         -0.91257242        0.009921
       505         -0.91257249        0.009921
       506         -0.91257326        0.009921
       507         -0.91257410        0.009921
       508         -0.91258153        0.009921
       509         -0.91258335        0.009921
       510         -0.91258827        0.009921
       511         -0.91259355        0.009921
       512         -0.91259438        0.009921
       513         -0.91259499        0.009921
       514         -0.91259835        0.009921
       515         -0.91260583        0.009921
       516         -0.91260655        0.009921
       517         -0.91260681        0.009921
       518         -0.91260700        0.009921
       519         -0.91260870        0.009921
       520         -0.91260912        0.009921
       521         -0.91261452        0.009921
       522         -0.91261491        0.009921
       523         -0.91261726        0.009921
       524         -0.91261907        0.009921
       525         -0.91262536        0.009921
       526         -0.91262626        0.009921
       527         -0.91263129        0.009921
       528         -0.91263365        0.009921
       529         -0.91263502        0.009921
       530         -0.91263580        0.009921
       531         -0.91263908        0.009921
       532         -0.91264041        0.009921
       533         -0.91264654        0.009921
       534         -0.91265080        0.009921
       535         -0.91265149        0.009921
       536         -0.91265171        0.009921
       537         -0.91266117        0.009921
       538         -0.91266357        0.009921
       539         -0.91266713        0.009921
       540         -0.91266829        0.009921
       541         -0.91266899        0.009921
       542         -0.91266906        0.009921
       543         -0.91267030        0.009921
       544         -0.91267264        0.009921
       545         -0.91267337        0.009921
       546         -0.91267762        0.009921
       547         -0.91267775        0.009921
       548         -0.91268142        0.009921
       549         -0.91268386        0.009921
       550         -0.91269161        0.009921
       551         -0.91269457        0.009921
       552         -0.91269486        0.009921
       553         -0.91269518        0.009921
       554         -0.91269803        0.009921
       555         -0.91269807        0.009921
       556         -0.91270096        0.009921
       557         -0.91270126        0.009921
       558         -0.91270785        0.009921
       559         -0.91271052        0.009921
       560         -0.91271165        0.009921
       561         -0.91271683        0.009921
       562         -0.91272071        0.009921
       563         -0.91272259        0.009921
       564         -0.91272767        0.009921
       565         -0.91273077        0.009921
       566         -0.91273441        0.009921
       567         -0.91273975        0.009921
       568         -0.91273987        0.009921
       569         -0.91274315        0.009921
       570         -0.91274352        0.009921
       571         -0.91274454        0.009921
       572         -0.91274486        0.009921
       573         -0.91274921        0.009921
       574         -0.91275091        0.009921
       575         -0.91275257        0.009921
       576         -0.91275463        0.009921
       577         -0.91275836        0.009921
       578         -0.91275988        0.009921
       579         -0.91276200        0.009921
       580         -0.91276389        0.009921
       581         -0.91276731        0.009921
       582         -0.91277116        0.009921
       583         -0.91277284        0.009921
       584         -0.91277717        0.009921
       585         -0.91278133        0.009921
       586         -0.91279002        0.009921
       587         -0.91279077        0.009921
       588         -0.91279440        0.009921
       589         -0.91279668        0.009921
       590         -0.91279898        0.009921
       591         -0.91279980        0.009921
       592         -0.91280244        0.009921
       593         -0.91280273        0.009921
       594         -0.91280924        0.009921
       595         -0.91280927        0.009921
       596         -0.91280960        0.009921
       597         -0.91280972        0.009921
       598         -0.91280978        0.009921
       599         -0.91281127        0.009921
       600         -0.91281563        0.009921
       601         -0.91282070        0.009921
       602         -0.91282184        0.009921
       603         -0.91282417        0.009921
       604         -0.91282784        0.009921
       605         -0.91282966        0.009921
       606         -0.91283091        0.009186
       607         -0.91283096        0.009186
       608         -0.91283359        0.009186
       609         -0.91283591        0.009186
       610         -0.91283827        0.009186
       611         -0.91284068        0.009186
       612         -0.91284216        0.008505
       613         -0.91284246        0.008505
       614         -0.91284259        0.008505
       615         -0.91284468        0.008505
       616         -0.91284506        0.008505
       617         -0.91285229        0.008505
       618         -0.91285670        0.008505
       619         -0.91285844        0.008505
       620         -0.91286219        0.008505
       621         -0.91286240        0.008505
       622         -0.91286770        0.008505
       623         -0.91287295        0.008505
       624         -0.91287595        0.008505
       625         -0.91287740        0.008505
       626         -0.91288065        0.008505
       627         -0.91288091        0.008505
       628         -0.91288178        0.008505
       629         -0.91288404        0.008505
       630         -0.91289019        0.008505
       631         -0.91289334        0.008505
       632         -0.91289744        0.008505
       633         -0.91289888        0.008505
       634         -0.91289954        0.008505
       635         -0.91290213        0.008505
       636         -0.91290378        0.008505
       637         -0.91290567        0.008505
       638         -0.91290820        0.008505
       639         -0.91290865        0.008505
       640         -0.91291475        0.008505
       641         -0.91291488        0.008505
       642         -0.91291990        0.008505
       643         -0.91292135        0.008505
       644         -0.91292308        0.008505
       645         -0.91292944        0.008505
       646         -0.91292975        0.008505
       647         -0.91293377        0.008505
       648         -0.91294034        0.008505
       649         -0.91294273        0.008505
       650         -0.91294328        0.008505
       651         -0.91294499        0.008505
       652         -0.91294641        0.008505
       653         -0.91294934        0.008505
       654         -0.91295348        0.008505
       655         -0.91295434        0.008505
       656         -0.91295568        0.008505
       657         -0.91295638        0.008505
       658         -0.91295709        0.008505
       659         -0.91295787        0.008505
       660         -0.91295977        0.007875
       661         -0.91296093        0.007875
       662         -0.91296332        0.007875
       663         -0.91296472        0.007875
       664         -0.91296500        0.007875
       665         -0.91296640        0.007875
       666         -0.91296710        0.007875
       667         -0.91296812        0.007875
       668         -0.91297016        0.007875
       669         -0.91297399        0.007875
       670         -0.91297579        0.007875
       671         -0.91297796        0.007875
       672         -0.91298015        0.007875
       673         -0.91298242        0.007875
       674         -0.91298422        0.007875
       675         -0.91298711        0.007875
       676         -0.91298744        0.007875
       677         -0.91299042        0.007875
       678         -0.91299345        0.007875
       679         -0.91299684        0.007875
       680         -0.91299871        0.007875
       681         -0.91299975        0.007875
       682         -0.91299990        0.007875
       683         -0.91300001        0.007875
       684         -0.91300428        0.007875
       685         -0.91300661        0.007875
       686         -0.91301194        0.007875
       687         -0.91301244        0.007875
       688         -0.91301328        0.007875
       689         -0.91301337        0.007875
       690         -0.91302152        0.007875
       691         -0.91302371        0.007875
       692         -0.91302391        0.007291
       693         -0.91302521        0.007291
       694         -0.91302608        0.007291
       695         -0.91302755        0.007291
       696         -0.91303118        0.007291
       697         -0.91303168        0.007291
       698         -0.91303178        0.007291
       699         -0.91303384        0.007291
       700         -0.91304249        0.007291
       701         -0.91304306        0.007291
       702         -0.91304620        0.007291
       703         -0.91304996        0.007291
       704         -0.91305017        0.007291
       705         -0.91305073        0.007291
       706         -0.91305345        0.007291
       707         -0.91305371        0.007291
       708         -0.91305375        0.007291
       709         -0.91305537        0.007291
       710         -0.91305773        0.007291
       711         -0.91305790        0.007291
       712         -0.91306095        0.007291
       713         -0.91306465        0.007291
       714         -0.91306551        0.007291
       715         -0.91306554        0.007291
       716         -0.91306722        0.007291
       717         -0.91306791        0.007291
       718         -0.91306992        0.007291
       719         -0.91307111        0.007291
       720         -0.91307211        0.007291
       721         -0.91307283        0.007291
       722         -0.91307335        0.007291
       723         -0.91307730        0.007291
       724         -0.91307850        0.007291
       725         -0.91308248        0.007291
       726         -0.91308367        0.007291
       727         -0.91308447        0.007291
       728         -0.91308896        0.007291
       729         -0.91309045        0.007291
       730         -0.91309670        0.007291
       731         -0.91309733        0.007291
       732         -0.91309787        0.007291
       733         -0.91310106        0.007291
       734         -0.91310128        0.007291
       735         -0.91310356        0.007291
       736         -0.91310750        0.007291
       737         -0.91311415        0.007291
       738         -0.91311508        0.007291
       739         -0.91311821        0.007291
       740         -0.91311942        0.007291
       741         -0.91312125        0.007291
       742         -0.91312417        0.007291
       743         -0.91312707        0.007291
       744         -0.91312802        0.007291
       745         -0.91313334        0.007291
       746         -0.91313457        0.007291
       747         -0.91313498        0.007291
       748         -0.91313589        0.007291
       749         -0.91313863        0.007291
       750         -0.91314291        0.007291
       751         -0.91314388        0.007291
       752         -0.91314453        0.007291
       753         -0.91314470        0.007291
       754         -0.91314835        0.007291
       755         -0.91315110        0.007291
       756         -0.91315170        0.007291
       757         -0.91315414        0.007291
       758         -0.91315457        0.007291
       759         -0.91315481        0.007291
       760         -0.91315740        0.007291
       761         -0.91315968        0.007291
       762         -0.91316266        0.007291
       763         -0.91316585        0.007291
       764         -0.91316751        0.007291
       765         -0.91316908        0.007291
       766         -0.91316956        0.007291
       767         -0.91316958        0.007291
       768         -0.91317195        0.007291
       769         -0.91317282        0.007291
       770         -0.91317341        0.007291
       771         -0.91317800        0.007291
       772         -0.91318285        0.007291
       773         -0.91318608        0.007291
       774         -0.91318781        0.007291
       775         -0.91318805        0.007291
       776         -0.91318849        0.007291
       777         -0.91319279        0.007291
       778         -0.91319295        0.007291
       779         -0.91319321        0.007291
       780         -0.91319525        0.007291
       781         -0.91319763        0.007291
       782         -0.91319776        0.007291
       783         -0.91320001        0.007291
       784         -0.91320045        0.007291
       785         -0.91320204        0.007291
       786         -0.91320339        0.007291
       787         -0.91320376        0.007291
       788         -0.91321022        0.007291
       789         -0.91321049        0.007291
       790         -0.91321336        0.007291
       791         -0.91321544        0.007291
       792         -0.91321696        0.007291
       793         -0.91321938        0.007291
       794         -0.91322027        0.007291
       795         -0.91322062        0.007291
       796         -0.91322249        0.007291
       797         -0.91322316        0.007291
       798         -0.91322443        0.007291
       799         -0.91323047        0.007291
       800         -0.91323151        0.007291
       801         -0.91323302        0.007291
       802         -0.91323382        0.007291
       803         -0.91323631        0.007291
       804         -0.91324051        0.007291
       805         -0.91324249        0.007291
       806         -0.91324512        0.007291
       807         -0.91324520        0.007291
       808         -0.91324763        0.007291
       809         -0.91324883        0.007291
       810         -0.91325333        0.007291
       811         -0.91325396        0.007291
       812         -0.91325650        0.007291
       813         -0.91325968        0.007291
       814         -0.91326224        0.007291
       815         -0.91326432        0.007291
       816         -0.91326478        0.007291
       817         -0.91326610        0.007291
       818         -0.91326965        0.007291
       819         -0.91327103        0.007291
       820         -0.91327136        0.007291
       821         -0.91327636        0.007291
       822         -0.91327734        0.007291
       823         -0.91328083        0.007291
       824         -0.91328148        0.007291
       825         -0.91328361        0.007291
       826         -0.91328831        0.007291
       827         -0.91328875        0.007291
       828         -0.91329176        0.007291
       829         -0.91329686        0.007291
       830         -0.91329911        0.007291
       831         -0.91330279        0.007291
       832         -0.91330381        0.007291
       833         -0.91330647        0.007291
       834         -0.91330678        0.007291
       835         -0.91330812        0.007291
       836         -0.91331010        0.007291
       837         -0.91331538        0.007291
       838         -0.91331641        0.007291
       839         -0.91331696        0.007291
       840         -0.91332027        0.007291
       841         -0.91332114        0.007291
       842         -0.91332247        0.007291
       843         -0.91332291        0.007291
       844         -0.91332542        0.007291
       845         -0.91332610        0.007291
       846         -0.91332815        0.007291
       847         -0.91332920        0.007291
       848         -0.91333168        0.007291
       849         -0.91333277        0.007291
       850         -0.91333551        0.007291
       851         -0.91333617        0.007291
       852         -0.91333724        0.007291
       853         -0.91334109        0.007291
       854         -0.91334175        0.007291
       855         -0.91334342        0.007291
       856         -0.91334867        0.007291
       857         -0.91335183        0.007291
       858         -0.91335573        0.007291
       859         -0.91335653        0.007291
       860         -0.91335726        0.007291
       861         -0.91335926        0.007291
       862         -0.91336065        0.007291
       863         -0.91336387        0.007291
       864         -0.91336448        0.007291
       865         -0.91336736        0.007291
       866         -0.91336840        0.007291
       867         -0.91337173        0.007291
       868         -0.91337196        0.007291
       869         -0.91337216        0.007291
       870         -0.91337313        0.007291
       871         -0.91337454        0.007291
       872         -0.91337815        0.007291
       873         -0.91337872        0.007291
       874         -0.91338172        0.007291
       875         -0.91338199        0.007291
       876         -0.91338282        0.007291
       877         -0.91338410        0.007291
       878         -0.91338735        0.007291
       879         -0.91338788        0.007291
       880         -0.91339055        0.007291
       881         -0.91339804        0.007291
       882         -0.91339881        0.007291
       883         -0.91339987        0.007291
       884         -0.91340070        0.007291
       885         -0.91340147        0.007291
       886         -0.91340317        0.007291
       887         -0.91340539        0.007291
       888         -0.91340759        0.007291
       889         -0.91341162        0.007291
       890         -0.91341880        0.007291
       891         -0.91342176        0.007291
       892         -0.91342407        0.007291
       893         -0.91342772        0.007291
       894         -0.91343047        0.007291
       895         -0.91343248        0.007291
       896         -0.91343258        0.007291
       897         -0.91343288        0.007291
       898         -0.91343289        0.007291
       899         -0.91343444        0.007291
       900         -0.91343468        0.007291
       901         -0.91343582        0.007291
       902         -0.91343836        0.007291
       903         -0.91344027        0.007291
       904         -0.91344240        0.007291
       905         -0.91344518        0.007291
       906         -0.91344555        0.007291
       907         -0.91344575        0.007291
       908         -0.91344682        0.007291
       909         -0.91344686        0.007291
       910         -0.91344856        0.007291
       911         -0.91344983        0.007291
       912         -0.91345455        0.007291
       913         -0.91345532        0.007291
       914         -0.91345796        0.007291
       915         -0.91345820        0.007291
       916         -0.91345940        0.007291
       917         -0.91346240        0.007291
       918         -0.91346392        0.006750
       919         -0.91346394        0.006750
       920         -0.91346783        0.006750
       921         -0.91346819        0.006750
       922         -0.91347319        0.006750
       923         -0.91347426        0.006750
       924         -0.91347481        0.006750
       925         -0.91347566        0.006750
       926         -0.91347575        0.006750
       927         -0.91347646        0.006750
       928         -0.91347821        0.006750
       929         -0.91347902        0.006750
       930         -0.91348346        0.006750
       931         -0.91348474        0.006750
       932         -0.91348494        0.006750
       933         -0.91348604        0.006750
       934         -0.91348781        0.006750
       935         -0.91349280        0.006750
       936         -0.91349520        0.006750
       937         -0.91349875        0.006750
       938         -0.91350061        0.006750
       939         -0.91350064        0.006750
       940         -0.91350182        0.006750
       941         -0.91350238        0.006750
       942         -0.91350284        0.006750
       943         -0.91350519        0.006750
       944         -0.91350664        0.006750
       945         -0.91350708        0.006750
       946         -0.91350823        0.006750
       947         -0.91351045        0.006750
       948         -0.91351227        0.006750
       949         -0.91351366        0.006750
       950         -0.91351396        0.006750
       951         -0.91351449        0.006750
       952         -0.91351562        0.006750
       953         -0.91351666        0.006750
       954         -0.91351931        0.006750
       955         -0.91351949        0.006750
       956         -0.91352010        0.006750
       957         -0.91352080        0.006750
       958         -0.91352133        0.006750
       959         -0.91352294        0.006750
       960         -0.91352325        0.006750
       961         -0.91352613        0.006750
       962         -0.91352735        0.006750
       963         -0.91352894        0.006750
       964         -0.91352979        0.006750
       965         -0.91353014        0.006750
       966         -0.91353252        0.006750
       967         -0.91353426        0.006750
       968         -0.91353909        0.006750
       969         -0.91353971        0.006750
       970         -0.91354165        0.006750
       971         -0.91354463        0.006750
       972         -0.91354537        0.006750
       973         -0.91354570        0.006750
       974         -0.91354835        0.006750
       975         -0.91354907        0.006750
       976         -0.91355057        0.006750
       977         -0.91355305        0.006750
       978         -0.91355862        0.006750
       979         -0.91356092        0.006750
       980         -0.91356252        0.006750
       981         -0.91356349        0.006750
       982         -0.91356463        0.006750
       983         -0.91356688        0.006750
       984         -0.91356915        0.006750
       985         -0.91357314        0.006750
       986         -0.91357540        0.006750
       987         -0.91357676        0.006750
       988         -0.91357832        0.006750
       989         -0.91357900        0.006750
       990         -0.91358065        0.006750
       991         -0.91358114        0.006750
       992         -0.91358251        0.006750
       993         -0.91358471        0.006750
       994         -0.91358608        0.006750
       995         -0.91358619        0.006750
       996         -0.91358731        0.006750
       997         -0.91359014        0.006750
       998         -0.91359367        0.006750
       999         -0.91359531        0.006750
      1000         -0.91359663        0.006750
      1001         -0.91359743        0.006750
      1002         -0.91359767        0.006750
      1003         -0.91359771        0.006750
      1004         -0.91359820        0.006750
      1005         -0.91360250        0.006750
      1006         -0.91360275        0.006750
      1007         -0.91360408        0.006750
      1008         -0.91360434        0.006750
      1009         -0.91360469        0.006750
      1010         -0.91360606        0.006750
      1011         -0.91360673        0.006750
      1012         -0.91360888        0.006750
      1013         -0.91361087        0.006750
      1014         -0.91361121        0.006750
      1015         -0.91361215        0.006750
      1016         -0.91361267        0.006750
      1017         -0.91361296        0.006750
      1018         -0.91361479        0.006750
      1019         -0.91361511        0.006750
      1020         -0.91361800        0.006750
      1021         -0.91361961        0.006750
      1022         -0.91362148        0.006750
      1023         -0.91362328        0.006750
      1024         -0.91362589        0.006750
      1025         -0.91362648        0.006750
      1026         -0.91362915        0.006750
      1027         -0.91363021        0.006750
      1028         -0.91363033        0.006750
      1029         -0.91363107        0.006750
      1030         -0.91363113        0.006750
      1031         -0.91363221        0.006750
      1032         -0.91363352        0.006750
      1033         -0.91363397        0.006750
      1034         -0.91363486        0.006750
      1035         -0.91363515        0.006750
      1036         -0.91363741        0.006750
      1037         -0.91363959        0.006750
      1038         -0.91363980        0.006750
      1039         -0.91364130        0.006750
      1040         -0.91364257        0.006750
      1041         -0.91364507        0.006750
      1042         -0.91364571        0.006750
      1043         -0.91364656        0.006750
      1044         -0.91364843        0.006750
      1045         -0.91365099        0.006750
      1046         -0.91365247        0.006750
      1047         -0.91365573        0.006750
      1048         -0.91365626        0.006750
      1049         -0.91365786        0.006750
      1050         -0.91365804        0.006750
      1051         -0.91366030        0.006750
      1052         -0.91366133        0.006750
      1053         -0.91366172        0.006750
      1054         -0.91366205        0.006750
      1055         -0.91366217        0.006750
      1056         -0.91366452        0.006750
      1057         -0.91366750        0.006750
      1058         -0.91366881        0.006750
      1059         -0.91367042        0.006750
      1060         -0.91367095        0.006750
      1061         -0.91367198        0.006750
      1062         -0.91367206        0.006750
      1063         -0.91367245        0.006750
      1064         -0.91367630        0.006750
      1065         -0.91367988        0.006750
      1066         -0.91368144        0.006750
      1067         -0.91368366        0.006750
      1068         -0.91368416        0.006750
      1069         -0.91368520        0.006750
      1070         -0.91368736        0.006750
      1071         -0.91368958        0.006750
      1072         -0.91368971        0.006750
      1073         -0.91369189        0.006750
      1074         -0.91369374        0.006750
      1075         -0.91369428        0.006750
      1076         -0.91369748        0.006750
      1077         -0.91369930        0.006750
      1078         -0.91369943        0.006750
      1079         -0.91370374        0.006750
      1080         -0.91370573        0.006750
      1081         -0.91370587        0.006750
      1082         -0.91370659        0.006750
      1083         -0.91370751        0.006750
      1084         -0.91370842        0.006750
      1085         -0.91370985        0.006750
      1086         -0.91371036        0.006750
      1087         -0.91371106        0.006750
      1088         -0.91371177        0.006750
      1089         -0.91371368        0.006750
      1090         -0.91371690        0.006750
      1091         -0.91371844        0.006750
      1092         -0.91371902        0.006750
      1093         -0.91372122        0.006750
      1094         -0.91372429        0.006750
      1095         -0.91372636        0.006750
      1096         -0.91372755        0.006750
      1097         -0.91372778        0.006750
      1098         -0.91372825        0.006750
      1099         -0.91372994        0.006750
      1100         -0.91373101        0.006750
      1101         -0.91373628        0.006750
      1102         -0.91373711        0.006750
      1103         -0.91373766        0.006750
      1104         -0.91374139        0.006750
      1105         -0.91374223        0.006750
      1106         -0.91374264        0.006750
      1107         -0.91374381        0.006750
      1108         -0.91374581        0.006750
      1109         -0.91374680        0.006750
      1110         -0.91374722        0.006750
      1111         -0.91375062        0.006750
      1112         -0.91375135        0.006750
      1113         -0.91375430        0.006750
      1114         -0.91375524        0.006750
      1115         -0.91375730        0.006750
      1116         -0.91376033        0.006750
      1117         -0.91376123        0.006750
      1118         -0.91376255        0.006750
      1119         -0.91376369        0.006750
      1120         -0.91376555        0.006750
      1121         -0.91376731        0.006750
      1122         -0.91376910        0.006750
      1123         -0.91376966        0.006750
      1124         -0.91377025        0.006750
      1125         -0.91377102        0.006750
      1126         -0.91377161        0.006750
      1127         -0.91377309        0.006750
      1128         -0.91377366        0.006750
      1129         -0.91377366        0.006750
      1130         -0.91377394        0.006750
      1131         -0.91377420        0.006750
      1132         -0.91377611        0.006750
      1133         -0.91377618        0.006750
      1134         -0.91377925        0.006750
      1135         -0.91377971        0.006750
      1136         -0.91378074        0.006750
      1137         -0.91378253        0.006750
      1138         -0.91378272        0.006750
      1139         -0.91378350        0.006750
      1140         -0.91378591        0.006750
      1141         -0.91378908        0.006750
      1142         -0.91378982        0.006750
      1143         -0.91379214        0.006750
      1144         -0.91379380        0.006750
      1145         -0.91379606        0.006750
      1146         -0.91379634        0.006750
      1147         -0.91379741        0.006750
      1148         -0.91379805        0.006750
      1149         -0.91379928        0.006750
      1150         -0.91380032        0.006750
      1151         -0.91380231        0.006750
      1152         -0.91380235        0.006250
      1153         -0.91380402        0.006250
      1154         -0.91380489        0.006250
      1155         -0.91380864        0.006250
      1156         -0.91380930        0.006250
      1157         -0.91381115        0.006250
      1158         -0.91381218        0.006250
      1159         -0.91381227        0.006250
      1160         -0.91381297        0.006250
      1161         -0.91381307        0.006250
      1162         -0.91381409        0.006250
      1163         -0.91381490        0.006250
      1164         -0.91381685        0.006250
      1165         -0.91381773        0.006250
      1166         -0.91381947        0.006250
      1167         -0.91382052        0.006250
      1168         -0.91382115        0.006250
      1169         -0.91382382        0.006250
      1170         -0.91382395        0.006250
      1171         -0.91382396        0.006250
      1172         -0.91382401        0.006250
      1173         -0.91382426        0.006250
      1174         -0.91382486        0.006250
      1175         -0.91382668        0.006250
      1176         -0.91382958        0.006250
      1177         -0.91383215        0.006250
      1178         -0.91383300        0.006250
      1179         -0.91383576        0.006250
      1180         -0.91383651        0.006250
      1181         -0.91383754        0.006250
      1182         -0.91383796        0.006250
      1183         -0.91383839        0.006250
      1184         -0.91384519        0.006250
      1185         -0.91384520        0.006250
      1186         -0.91384589        0.006250
      1187         -0.91384686        0.006250
      1188         -0.91384722        0.006250
      1189         -0.91385083        0.006250
      1190         -0.91385314        0.006250
      1191         -0.91385378        0.005787
      1192         -0.91385514        0.005787
      1193         -0.91385549        0.005787
      1194         -0.91385574        0.005787
      1195         -0.91385611        0.005787
      1196         -0.91385654        0.005787
      1197         -0.91385708        0.005787
      1198         -0.91385788        0.005787
      1199         -0.91385897        0.005787
      1200         -0.91386035        0.005787
      1201         -0.91386041        0.005787
      1202         -0.91386164        0.005787
      1203         -0.91386260        0.005787
      1204         -0.91386284        0.005787
      1205         -0.91386286        0.005787
      1206         -0.91386416        0.005787
      1207         -0.91386524        0.005787
      1208         -0.91386640        0.005787
      1209         -0.91386839        0.005787
      1210         -0.91386944        0.005787
      1211         -0.91386959        0.005787
      1212         -0.91387156        0.005787
      1213         -0.91387410        0.005787
      1214         -0.91387496        0.005787
      1215         -0.91387529        0.005787
      1216         -0.91387566        0.005787
      1217         -0.91387714        0.005787
      1218         -0.91387827        0.005787
      1219         -0.91387880        0.005787
      1220         -0.91388089        0.005787
      1221         -0.91388315        0.005787
      1222         -0.91388321        0.005787
      1223         -0.91388335        0.005787
      1224         -0.91388383        0.005787
      1225         -0.91388663        0.005787
      1226         -0.91388698        0.005787
      1227         -0.91388711        0.005787
      1228         -0.91388815        0.005787
      1229         -0.91389044        0.005787
      1230         -0.91389069        0.005787
      1231         -0.91389312        0.005787
      1232         -0.91389407        0.005787
      1233         -0.91389466        0.005787
      1234         -0.91389609        0.005787
      1235         -0.91389660        0.005787
      1236         -0.91389702        0.005787
      1237         -0.91389767        0.005787
      1238         -0.91390001        0.005358
      1239         -0.91390054        0.005358
      1240         -0.91390110        0.005358
      1241         -0.91390372        0.005358
      1242         -0.91390383        0.005358
      1243         -0.91390657        0.005358
      1244         -0.91390853        0.005358
      1245         -0.91390883        0.005358
      1246         -0.91390921        0.005358
      1247         -0.91390932        0.005358
      1248         -0.91391141        0.005358
      1249         -0.91391206        0.005358
      1250         -0.91391416        0.005358
      1251         -0.91391534        0.005358
      1252         -0.91391552        0.005358
      1253         -0.91391634        0.005358
      1254         -0.91391674        0.005358
      1255         -0.91391710        0.005358
      1256         -0.91391845        0.005358
      1257         -0.91391888        0.005358
      1258         -0.91391968        0.005358
      1259         -0.91392012        0.005358
      1260         -0.91392090        0.005358
      1261         -0.91392298        0.005358
      1262         -0.91392346        0.005358
      1263         -0.91392352        0.005358
      1264         -0.91392536        0.005358
      1265         -0.91392565        0.005358
      1266         -0.91392719        0.005358
      1267         -0.91392888        0.005358
      1268         -0.91392988        0.005358
      1269         -0.91393049        0.005358
      1270         -0.91393063        0.005358
      1271         -0.91393095        0.005358
      1272         -0.91393144        0.005358
      1273         -0.91393207        0.005358
      1274         -0.91393335        0.005358
      1275         -0.91393418        0.005358
      1276         -0.91393537        0.005358
      1277         -0.91393732        0.005358
      1278         -0.91393913        0.005358
      1279         -0.91393982        0.005358
      1280         -0.91394084        0.005358
      1281         -0.91394308        0.005358
      1282         -0.91394343        0.005358
      1283         -0.91394586        0.005358
      1284         -0.91394673        0.005358
      1285         -0.91394747        0.005358
      1286         -0.91394890        0.005358
      1287         -0.91395007        0.005358
      1288         -0.91395113        0.005358
      1289         -0.91395210        0.005358
      1290         -0.91395450        0.005358
      1291         -0.91395523        0.005358
      1292         -0.91395686        0.005358
      1293         -0.91395771        0.005358
      1294         -0.91395836        0.005358
      1295         -0.91395855        0.005358
      1296         -0.91395902        0.005358
      1297         -0.91395909        0.005358
      1298         -0.91395919        0.005358
      1299         -0.91395940        0.005358
      1300         -0.91396023        0.005358
      1301         -0.91396037        0.005358
      1302         -0.91396040        0.005358
      1303         -0.91396044        0.005358
      1304         -0.91396072        0.005358
      1305         -0.91396320        0.005358
      1306         -0.91396644        0.005358
      1307         -0.91396689        0.005358
      1308         -0.91396699        0.005358
      1309         -0.91396818        0.005358
      1310         -0.91396840        0.005358
      1311         -0.91396850        0.005358
      1312         -0.91397105        0.005358
      1313         -0.91397342        0.005358
      1314         -0.91397370        0.005358
      1315         -0.91397444        0.005358
      1316         -0.91397489        0.005358
      1317         -0.91397549        0.005358
      1318         -0.91397657        0.005358
      1319         -0.91397771        0.005358
      1320         -0.91397940        0.005358
      1321         -0.91397979        0.005358
      1322         -0.91398025        0.005358
      1323         -0.91398028        0.005358
      1324         -0.91398309        0.005358
      1325         -0.91398368        0.005358
      1326         -0.91398408        0.005358
      1327         -0.91398474        0.005358
      1328         -0.91398511        0.005358
      1329         -0.91398590        0.005358
      1330         -0.91398663        0.005358
      1331         -0.91398807        0.005358
      1332         -0.91399147        0.005358
      1333         -0.91399376        0.005358
      1334         -0.91399469        0.005358
      1335         -0.91399499        0.005358
      1336         -0.91399528        0.005358
      1337         -0.91399603        0.005358
      1338         -0.91399728        0.005358
      1339         -0.91399808        0.005358
      1340         -0.91399819        0.005358
      1341         -0.91399839        0.005358
      1342         -0.91399857        0.005358
      1343         -0.91399999        0.005358
      1344         -0.91400071        0.005358
      1345         -0.91400167        0.005358
      1346         -0.91400179        0.005358
      1347         -0.91400188        0.005358
      1348         -0.91400252        0.005358
      1349         -0.91400490        0.005358
      1350         -0.91400701        0.005358
      1351         -0.91400906        0.005358
      1352         -0.91400927        0.005358
      1353         -0.91401029        0.005358
      1354         -0.91401132        0.005358
      1355         -0.91401153        0.005358
      1356         -0.91401163        0.005358
      1357         -0.91401172        0.005358
      1358         -0.91401241        0.005358
      1359         -0.91401428        0.005358
      1360         -0.91401536        0.005358
      1361         -0.91401616        0.005358
      1362         -0.91401742        0.005358
      1363         -0.91401878        0.005358
      1364         -0.91401937        0.005358
      1365         -0.91401944        0.005358
      1366         -0.91401978        0.005358
      1367         -0.91402075        0.005358
      1368         -0.91402159        0.005358
      1369         -0.91402452        0.005358
      1370         -0.91402655        0.005358
      1371         -0.91402676        0.005358
      1372         -0.91402790        0.005358
      1373         -0.91402903        0.005358
      1374         -0.91402972        0.005358
      1375         -0.91402980        0.005358
      1376         -0.91403076        0.005358
      1377         -0.91403081        0.005358
      1378         -0.91403148        0.005358
      1379         -0.91403230        0.005358
      1380         -0.91403311        0.005358
      1381         -0.91403392        0.005358
      1382         -0.91403436        0.005358
      1383         -0.91403458        0.005358
      1384         -0.91403471        0.005358
      1385         -0.91403485        0.005358
      1386         -0.91403664        0.005358
      1387         -0.91403820        0.005358
      1388         -0.91403850        0.005358
      1389         -0.91403877        0.005358
      1390         -0.91403942        0.005358
      1391         -0.91404041        0.005358
      1392         -0.91404304        0.005358
      1393         -0.91404527        0.005358
      1394         -0.91404589        0.005358
      1395         -0.91404754        0.005358
      1396         -0.91404875        0.005358
      1397         -0.91404965        0.005358
      1398         -0.91405030        0.005358
      1399         -0.91405080        0.005358
      1400         -0.91405127        0.005358
      1401         -0.91405190        0.005358
      1402         -0.91405264        0.004961
      1403         -0.91405301        0.004961
      1404         -0.91405362        0.004961
      1405         -0.91405437        0.004961
      1406         -0.91405539        0.004961
      1407         -0.91405613        0.004961
      1408         -0.91405666        0.004961
      1409         -0.91405807        0.004961
      1410         -0.91405865        0.004961
      1411         -0.91405884        0.004961
      1412         -0.91405993        0.004961
      1413         -0.91406141        0.004961
      1414         -0.91406150        0.004961
      1415         -0.91406165        0.004961
      1416         -0.91406197        0.004961
      1417         -0.91406200        0.004961
      1418         -0.91406270        0.004961
      1419         -0.91406310        0.004593
      1420         -0.91406386        0.004593
      1421         -0.91406442        0.004593
      1422         -0.91406456        0.004593
      1423         -0.91406573        0.004593
      1424         -0.91406580        0.004593
      1425         -0.91406617        0.004593
      1426         -0.91406637        0.004593
      1427         -0.91406681        0.004593
      1428         -0.91406682        0.004593
      1429         -0.91406710        0.004593
      1430         -0.91406721        0.004593
      1431         -0.91406742        0.004593
      1432         -0.91406818        0.004593
      1433         -0.91407001        0.004593
      1434         -0.91407025        0.004593
      1435         -0.91407072        0.004593
      1436         -0.91407234        0.004593
      1437         -0.91407239        0.004593
      1438         -0.91407256        0.004593
      1439         -0.91407339        0.004593
      1440         -0.91407386        0.004593
      1441         -0.91407476        0.004593
      1442         -0.91407577        0.004593
      1443         -0.91407764        0.004593
      1444         -0.91407824        0.004593
      1445         -0.91407901        0.004593
      1446         -0.91407986        0.004593
      1447         -0.91408010        0.004593
      1448         -0.91408092        0.004593
      1449         -0.91408116        0.004593
      1450         -0.91408120        0.004593
      1451         -0.91408204        0.004593
      1452         -0.91408271        0.004593
      1453         -0.91408413        0.004593
      1454         -0.91408501        0.004593
      1455         -0.91408542        0.004593
      1456         -0.91408575        0.004593
      1457         -0.91408621        0.004593
      1458         -0.91408672        0.004593
      1459         -0.91408758        0.004593
      1460         -0.91408793        0.004593
      1461         -0.91408855        0.004593
      1462         -0.91408857        0.004593
      1463         -0.91408930        0.004593
      1464         -0.91409018        0.004593
      1465         -0.91409042        0.004593
      1466         -0.91409049        0.004593
      1467         -0.91409135        0.004593
      1468         -0.91409221        0.004593
      1469         -0.91409294        0.004593
      1470         -0.91409390        0.004593
      1471         -0.91409401        0.004593
      1472         -0.91409455        0.004593
      1473         -0.91409459        0.004593
      1474         -0.91409619        0.004593
      1475         -0.91409831        0.004593
      1476         -0.91409868        0.004593
      1477         -0.91409936        0.004593
      1478         -0.91409985        0.004593
      1479         -0.91409996        0.004593
      1480         -0.91410047        0.004593
      1481         -0.91410097        0.004593
      1482         -0.91410253        0.004593
      1483         -0.91410311        0.004593
      1484         -0.91410390        0.004593
      1485         -0.91410424        0.004593
      1486         -0.91410473        0.004593
      1487         -0.91410526        0.004593
      1488         -0.91410541        0.004593
      1489         -0.91410845        0.004593
      1490         -0.91410927        0.004593
      1491         -0.91410951        0.004593
      1492         -0.91410970        0.004593
      1493         -0.91411134        0.004593
      1494         -0.91411174        0.004593
      1495         -0.91411339        0.004593
      1496         -0.91411370        0.004593
      1497         -0.91411438        0.004593
      1498         -0.91411446        0.004593
      1499         -0.91411474        0.004593
      1500         -0.91411518        0.004593
      1501         -0.91411548        0.004593
      1502         -0.91411602        0.004593
      1503         -0.91411624        0.004593
      1504         -0.91411627        0.004593
      1505         -0.91411839        0.004593
      1506         -0.91411843        0.004593
      1507         -0.91411854        0.004593
      1508         -0.91411898        0.004593
      1509         -0.91411933        0.004593
      1510         -0.91412013        0.004593
      1511         -0.91412032        0.004593
      1512         -0.91412036        0.004593
      1513         -0.91412149        0.004593
      1514         -0.91412260        0.004593
      1515         -0.91412313        0.004593
      1516         -0.91412423        0.004593
      1517         -0.91412488        0.004593
      1518         -0.91412497        0.004593
      1519         -0.91412621        0.004593
      1520         -0.91412647        0.004593
      1521         -0.91412840        0.004593
      1522         -0.91412873        0.004593
      1523         -0.91412910        0.004593
      1524         -0.91412912        0.004593
      1525         -0.91412927        0.004593
      1526         -0.91412929        0.004593
      1527         -0.91412944        0.004593
      1528         -0.91412957        0.004593
      1529         -0.91413109        0.004593
      1530         -0.91413179        0.004593
      1531         -0.91413291        0.004593
      1532         -0.91413321        0.004593
      1533         -0.91413417        0.004593
      1534         -0.91413445        0.004593
      1535         -0.91413481        0.004593
      1536         -0.91413504        0.004593
      1537         -0.91413530        0.004593
      1538         -0.91413651        0.004593
      1539         -0.91413653        0.004593
      1540         -0.91413846        0.004593
      1541         -0.91413857        0.004593
      1542         -0.91413901        0.004593
      1543         -0.91413966        0.004593
      1544         -0.91413995        0.004593
      1545         -0.91414062        0.004593
      1546         -0.91414078        0.004593
      1547         -0.91414177        0.004593
      1548         -0.91414201        0.004593
      1549         -0.91414210        0.004593
      1550         -0.91414220        0.004593
      1551         -0.91414305        0.004593
[...]


 global array: Ca[1:10,1:10],  handle: -981 

                     1                       2                       3                       4                       5                       6  
       ----------------------- ----------------------- ----------------------- ----------------------- ----------------------- -----------------------
   1       0.82140,   -0.42257    -0.32255,    0.17348    -0.00134,    0.01509    -0.07198,   -0.02873     0.00545,    0.00350    -0.00584,    0.02344
   2      -0.30489,    0.20975    -0.75193,    0.53284     0.05796,    0.02251    -0.01201,   -0.00727     0.01177,    0.01479     0.02188,    0.07319
   3       0.04497,    0.03145     0.01991,    0.00871     0.14924,    0.80005     0.13605,    0.54798     0.00119,   -0.04398    -0.01252,   -0.03328
   4      -0.01203,    0.04316     0.01687,   -0.07082     0.54873,   -0.15335    -0.76759,    0.27096     0.00767,   -0.00288     0.05936,    0.00371
   5      -0.02089,    0.01938     0.00984,   -0.06920    -0.00186,    0.04173     0.02893,    0.02240     0.36002,    0.18785     0.35569,    0.13920
   6      -0.02154,   -0.01847    -0.04797,    0.01618    -0.04622,   -0.04476    -0.06491,   -0.04677     0.03753,   -0.41395     0.05387,   -0.37448
   7      -0.01399,   -0.02422    -0.00211,   -0.00721     0.00368,    0.03610     0.04512,   -0.01642     0.22332,   -0.30871     0.29085,   -0.35954
   8       0.00217,   -0.02768    -0.02287,   -0.02885    -0.03123,    0.01009    -0.00177,    0.00734    -0.41467,    0.18841     0.37327,   -0.16322
   9      -0.02562,    0.01373     0.03501,   -0.01288    -0.01736,    0.00015     0.02809,    0.02751     0.07937,   -0.47175    -0.01947,    0.43454
  10      -0.02242,   -0.01555    -0.01964,    0.01162    -0.00834,    0.01663     0.02374,    0.01354    -0.28008,   -0.00487     0.34973,    0.09175

                     7                       8                       9                      10  
       ----------------------- ----------------------- ----------------------- -----------------------
   1       0.01394,    0.04212     0.03363,   -0.00144     0.02333,    0.03357    -0.00498,   -0.03058
   2       0.02055,    0.04014    -0.03161,    0.00370     0.00997,   -0.00992     0.01135,   -0.00993
   3       0.00935,   -0.00445    -0.04928,    0.00602    -0.06091,    0.00946    -0.05337,    0.05422
   4      -0.01897,    0.00999    -0.00001,   -0.00247     0.01316,    0.00446     0.00361,   -0.03456
   5       0.54162,    0.22701     0.45536,    0.22483     0.26098,    0.07184     0.04136,    0.05152
   6       0.02144,   -0.04386     0.00376,    0.34880    -0.13754,    0.50009    -0.11700,    0.51326
   7      -0.35731,    0.40265    -0.12450,    0.19627     0.20013,   -0.18727     0.33743,   -0.32202
   8       0.37134,   -0.17721    -0.27147,    0.11060    -0.30215,    0.16676     0.44519,   -0.22539
   9       0.04453,   -0.02033     0.00769,   -0.16953     0.01143,    0.55669     0.00412,   -0.48644
  10      -0.43007,   -0.04133     0.66716,    0.04413    -0.38294,   -0.03083    -0.06060,   -0.05882

                   WFN1 Final beta Correlation Function Analysis
                   ---------------------------------------------


 global array: Cb[1:10,1:10],  handle: -980 

                     1                       2                       3                       4                       5                       6  
       ----------------------- ----------------------- ----------------------- ----------------------- ----------------------- -----------------------
   1       0.82140,   -0.42257    -0.32255,    0.17348    -0.00134,    0.01509    -0.07198,   -0.02873     0.00545,    0.00350    -0.00584,    0.02344
   2      -0.30489,    0.20975    -0.75193,    0.53284     0.05796,    0.02251    -0.01201,   -0.00727     0.01177,    0.01479     0.02188,    0.07319
   3       0.04497,    0.03145     0.01991,    0.00871     0.14924,    0.80005     0.13605,    0.54798     0.00119,   -0.04398    -0.01252,   -0.03328
   4      -0.01203,    0.04316     0.01687,   -0.07082     0.54873,   -0.15335    -0.76759,    0.27096     0.00767,   -0.00288     0.05936,    0.00371
   5      -0.02089,    0.01938     0.00984,   -0.06920    -0.00186,    0.04173     0.02893,    0.02240     0.36002,    0.18785     0.35569,    0.13920
   6      -0.02154,   -0.01847    -0.04797,    0.01618    -0.04622,   -0.04476    -0.06491,   -0.04677     0.03753,   -0.41395     0.05387,   -0.37448
   7      -0.01399,   -0.02422    -0.00211,   -0.00721     0.00368,    0.03610     0.04512,   -0.01642     0.22332,   -0.30871     0.29085,   -0.35954
   8       0.00217,   -0.02768    -0.02287,   -0.02885    -0.03123,    0.01009    -0.00177,    0.00734    -0.41467,    0.18841     0.37327,   -0.16322
   9      -0.02562,    0.01373     0.03501,   -0.01288    -0.01736,    0.00015     0.02809,    0.02751     0.07937,   -0.47175    -0.01947,    0.43454
  10      -0.02242,   -0.01555    -0.01964,    0.01162    -0.00834,    0.01663     0.02374,    0.01354    -0.28008,   -0.00487     0.34973,    0.09175

                     7                       8                       9                      10  
       ----------------------- ----------------------- ----------------------- -----------------------
   1       0.01394,    0.04212     0.03363,   -0.00144     0.02333,    0.03357    -0.00498,   -0.03058
   2       0.02055,    0.04014    -0.03161,    0.00370     0.00997,   -0.00992     0.01135,   -0.00993
   3       0.00935,   -0.00445    -0.04928,    0.00602    -0.06091,    0.00946    -0.05337,    0.05422
   4      -0.01897,    0.00999    -0.00001,   -0.00247     0.01316,    0.00446     0.00361,   -0.03456
   5       0.54162,    0.22701     0.45536,    0.22483     0.26098,    0.07184     0.04136,    0.05152
   6       0.02144,   -0.04386     0.00376,    0.34880    -0.13754,    0.50009    -0.11700,    0.51326
   7      -0.35731,    0.40265    -0.12450,    0.19627     0.20013,   -0.18727     0.33743,   -0.32202
   8       0.37134,   -0.17721    -0.27147,    0.11060    -0.30215,    0.16676     0.44519,   -0.22539
   9       0.04453,   -0.02033     0.00769,   -0.16953     0.01143,    0.55669     0.00412,   -0.48644
  10      -0.43007,   -0.04133     0.66716,    0.04413    -0.38294,   -0.03083    -0.06060,   -0.05882

                     WFN1 Final Alpha Natural Orbital Analysis
                     -----------------------------------------

 Vector    1  Occ=8.532718D-01  E= 0.000000D+00
              MO Center= -1.7D-06, -8.8D-07,  5.1D-05, r^2= 2.0D+00
   Bfn.  Coefficient  Atom+Function         Bfn.  Coefficient  Atom+Function  
  ----- ------------  ---------------      ----- ------------  ---------------
     2     -0.485897  1 H  s                  7     -0.485954  2 H  s          
     1     -0.222417  1 H  s                  6     -0.222392  2 H  s          

 Vector    2  Occ=1.369489D-01  E= 0.000000D+00
              MO Center=  5.1D-06, -9.5D-07, -2.6D-05, r^2= 2.2D+00
   Bfn.  Coefficient  Atom+Function         Bfn.  Coefficient  Atom+Function  
  ----- ------------  ---------------      ----- ------------  ---------------
     2      0.541865  1 H  s                  7     -0.541748  2 H  s          
     1      0.296119  1 H  s                  6     -0.296242  2 H  s          

 Vector    3  Occ=3.011517D-03  E= 0.000000D+00
              MO Center=  1.3D-03,  5.4D-04, -2.4D-03, r^2= 2.1D+00
   Bfn.  Coefficient  Atom+Function         Bfn.  Coefficient  Atom+Function  
  ----- ------------  ---------------      ----- ------------  ---------------
     1      0.896821  1 H  s                  6      0.897116  2 H  s          
     2     -0.671774  1 H  s                  7     -0.671741  2 H  s          
     5     -0.051776  1 H  pz                10      0.043165  2 H  pz         

 Vector    4  Occ=2.007661D-03  E= 0.000000D+00
              MO Center=  1.0D-03,  2.8D-04,  1.2D-03, r^2= 2.9D+00
   Bfn.  Coefficient  Atom+Function         Bfn.  Coefficient  Atom+Function  
  ----- ------------  ---------------      ----- ------------  ---------------
     2      0.962866  1 H  s                  7     -0.963129  2 H  s          
     1     -0.917144  1 H  s                  6      0.916962  2 H  s          
    10     -0.041988  2 H  pz                 5     -0.031808  1 H  pz         

 Vector    5  Occ=8.122646D-04  E= 0.000000D+00
              MO Center=  1.3D-04, -1.8D-04, -3.4D-04, r^2= 1.5D+00
   Bfn.  Coefficient  Atom+Function         Bfn.  Coefficient  Atom+Function  
  ----- ------------  ---------------      ----- ------------  ---------------
     9     -0.697066  2 H  py                 4     -0.676263  1 H  py         
     3      0.204842  1 H  px                 8      0.116093  2 H  px         
     5      0.028360  1 H  pz         

 Vector    6  Occ=8.051616D-04  E= 0.000000D+00
              MO Center= -1.4D-03, -2.7D-04, -4.4D-05, r^2= 1.5D+00
   Bfn.  Coefficient  Atom+Function         Bfn.  Coefficient  Atom+Function  
  ----- ------------  ---------------      ----- ------------  ---------------
     8      0.696892  2 H  px                 3      0.676601  1 H  px         
     4      0.202563  1 H  py                 9      0.116499  2 H  py         
     5     -0.035091  1 H  pz         

 Vector    7  Occ=7.822419D-04  E= 0.000000D+00
              MO Center= -3.2D-05,  1.9D-05,  2.2D-03, r^2= 1.6D+00
   Bfn.  Coefficient  Atom+Function         Bfn.  Coefficient  Atom+Function  
  ----- ------------  ---------------      ----- ------------  ---------------
     5      0.704223  1 H  pz                10     -0.707012  2 H  pz         
     2     -0.106587  1 H  s                  1      0.099693  1 H  s          
     7     -0.091677  2 H  s                  6      0.085648  2 H  s          
     8      0.026838  2 H  px                 4      0.025723  1 H  py         

 Vector    8  Occ=7.710471D-04  E= 0.000000D+00
              MO Center=  9.9D-06,  1.0D-04,  3.6D-04, r^2= 1.5D+00
   Bfn.  Coefficient  Atom+Function         Bfn.  Coefficient  Atom+Function  
  ----- ------------  ---------------      ----- ------------  ---------------
     9     -0.696288  2 H  py                 4      0.677076  1 H  py         
     3     -0.203149  1 H  px                 8      0.117483  2 H  px         
    10      0.040165  2 H  pz         

 Vector    9  Occ=8.449429D-04  E= 0.000000D+00
              MO Center= -1.1D-03, -3.4D-04, -1.7D-05, r^2= 1.5D+00
   Bfn.  Coefficient  Atom+Function         Bfn.  Coefficient  Atom+Function  
  ----- ------------  ---------------      ----- ------------  ---------------
     8     -0.697025  2 H  px                 3      0.676564  1 H  px         
     4      0.205268  1 H  py                 9     -0.116784  2 H  py         

 Vector   10  Occ=7.444998D-04  E= 0.000000D+00
              MO Center=  1.6D-04, -1.5D-04, -9.5D-04, r^2= 1.6D+00
   Bfn.  Coefficient  Atom+Function         Bfn.  Coefficient  Atom+Function  
  ----- ------------  ---------------      ----- ------------  ---------------
     5     -0.709279  1 H  pz                10     -0.706039  2 H  pz         
     7      0.145173  2 H  s                  2     -0.136931  1 H  s          
     6     -0.103022  2 H  s                  1      0.092237  1 H  s          
     9     -0.042045  2 H  py                 3     -0.030044  1 H  px         


                     WFN1 Final Beta Natural Orbital Analysis
                     ----------------------------------------

 Vector    1  Occ=8.532718D-01  E= 0.000000D+00
              MO Center= -1.7D-06, -8.8D-07,  5.1D-05, r^2= 2.0D+00
   Bfn.  Coefficient  Atom+Function         Bfn.  Coefficient  Atom+Function  
  ----- ------------  ---------------      ----- ------------  ---------------
     2     -0.485897  1 H  s                  7     -0.485954  2 H  s          
     1     -0.222417  1 H  s                  6     -0.222392  2 H  s          

 Vector    2  Occ=1.369489D-01  E= 0.000000D+00
              MO Center=  5.1D-06, -9.5D-07, -2.6D-05, r^2= 2.2D+00
   Bfn.  Coefficient  Atom+Function         Bfn.  Coefficient  Atom+Function  
  ----- ------------  ---------------      ----- ------------  ---------------
     2      0.541865  1 H  s                  7     -0.541748  2 H  s          
     1      0.296119  1 H  s                  6     -0.296242  2 H  s          

 Vector    3  Occ=3.011517D-03  E= 0.000000D+00
              MO Center=  1.3D-03,  5.4D-04, -2.4D-03, r^2= 2.1D+00
   Bfn.  Coefficient  Atom+Function         Bfn.  Coefficient  Atom+Function  
  ----- ------------  ---------------      ----- ------------  ---------------
     1      0.896821  1 H  s                  6      0.897116  2 H  s          
     2     -0.671774  1 H  s                  7     -0.671741  2 H  s          
     5     -0.051776  1 H  pz                10      0.043165  2 H  pz         

 Vector    4  Occ=2.007661D-03  E= 0.000000D+00
              MO Center=  1.0D-03,  2.8D-04,  1.2D-03, r^2= 2.9D+00
   Bfn.  Coefficient  Atom+Function         Bfn.  Coefficient  Atom+Function  
  ----- ------------  ---------------      ----- ------------  ---------------
     2      0.962866  1 H  s                  7     -0.963129  2 H  s          
     1     -0.917144  1 H  s                  6      0.916962  2 H  s          
    10     -0.041988  2 H  pz                 5     -0.031808  1 H  pz         

 Vector    5  Occ=8.122646D-04  E= 0.000000D+00
              MO Center=  1.3D-04, -1.8D-04, -3.4D-04, r^2= 1.5D+00
   Bfn.  Coefficient  Atom+Function         Bfn.  Coefficient  Atom+Function  
  ----- ------------  ---------------      ----- ------------  ---------------
     9     -0.697066  2 H  py                 4     -0.676263  1 H  py         
     3      0.204842  1 H  px                 8      0.116093  2 H  px         
     5      0.028360  1 H  pz         

 Vector    6  Occ=8.051616D-04  E= 0.000000D+00
              MO Center= -1.4D-03, -2.7D-04, -4.4D-05, r^2= 1.5D+00
   Bfn.  Coefficient  Atom+Function         Bfn.  Coefficient  Atom+Function  
  ----- ------------  ---------------      ----- ------------  ---------------
     8      0.696892  2 H  px                 3      0.676601  1 H  px         
     4      0.202563  1 H  py                 9      0.116499  2 H  py         
     5     -0.035091  1 H  pz         

 Vector    7  Occ=7.822419D-04  E= 0.000000D+00
              MO Center= -3.2D-05,  1.9D-05,  2.2D-03, r^2= 1.6D+00
   Bfn.  Coefficient  Atom+Function         Bfn.  Coefficient  Atom+Function  
  ----- ------------  ---------------      ----- ------------  ---------------
     5      0.704223  1 H  pz                10     -0.707012  2 H  pz         
     2     -0.106587  1 H  s                  1      0.099693  1 H  s          
     7     -0.091677  2 H  s                  6      0.085648  2 H  s          
     8      0.026838  2 H  px                 4      0.025723  1 H  py         

 Vector    8  Occ=7.710471D-04  E= 0.000000D+00
              MO Center=  9.9D-06,  1.0D-04,  3.6D-04, r^2= 1.5D+00
   Bfn.  Coefficient  Atom+Function         Bfn.  Coefficient  Atom+Function  
  ----- ------------  ---------------      ----- ------------  ---------------
     9     -0.696288  2 H  py                 4      0.677076  1 H  py         
     3     -0.203149  1 H  px                 8      0.117483  2 H  px         
    10      0.040165  2 H  pz         

 Vector    9  Occ=8.449429D-04  E= 0.000000D+00
              MO Center= -1.1D-03, -3.4D-04, -1.7D-05, r^2= 1.5D+00
   Bfn.  Coefficient  Atom+Function         Bfn.  Coefficient  Atom+Function  
  ----- ------------  ---------------      ----- ------------  ---------------
     8     -0.697025  2 H  px                 3      0.676564  1 H  px         
     4      0.205268  1 H  py                 9     -0.116784  2 H  py         

 Vector   10  Occ=7.444998D-04  E= 0.000000D+00
              MO Center=  1.6D-04, -1.5D-04, -9.5D-04, r^2= 1.6D+00
   Bfn.  Coefficient  Atom+Function         Bfn.  Coefficient  Atom+Function  
  ----- ------------  ---------------      ----- ------------  ---------------
     5     -0.709279  1 H  pz                10     -0.706039  2 H  pz         
     7      0.145173  2 H  s                  2     -0.136931  1 H  s          
     6     -0.103022  2 H  s                  1      0.092237  1 H  s          
     9     -0.042045  2 H  py                 3     -0.030044  1 H  px         


 Task  times  cpu:     3905.3s     wall:     4539.5s
 Summary of allocated global arrays
-----------------------------------
  No active global arrays



                         GA Statistics for process    0
                         ------------------------------

       create   destroy   get      put      acc     scatter   gather  read&inc
calls:   44       44     1.12e+09 4.78e+05 6.36e+05    0        0       11     
number of processes/call 1.00e+00 1.00e+00 1.00e+00 0.00e+00 0.00e+00
bytes total:             8.92e+11 5.09e+08 6.36e+08 0.00e+00 0.00e+00 8.80e+01
bytes remote:            0.00e+00 0.00e+00 0.00e+00 0.00e+00 0.00e+00 0.00e+00
Max memory consumed for GA by this process: 268000 bytes
MA_summarize_allocated_blocks: starting scan ...
MA_summarize_allocated_blocks: scan completed: 0 heap blocks, 0 stack blocks
MA usage statistics:

	allocation statistics:
					      heap	     stack
					      ----	     -----
	current number of blocks	         0	         0
	maximum number of blocks	        19	        17
	current total bytes		         0	         0
	maximum total bytes		   3205432	  22508664
	maximum total K-bytes		      3206	     22509
	maximum total M-bytes		         4	        23


                                NWChem Input Module
                                -------------------





                                     CITATION
                                     --------
                Please cite the following reference when publishing
                           results obtained with NWChem:

                 M. Valiev, E.J. Bylaska, N. Govind, K. Kowalski,
              T.P. Straatsma, H.J.J. van Dam, D. Wang, J. Nieplocha,
                        E. Apra, T.L. Windus, W.A. de Jong
                 "NWChem: a comprehensive and scalable open-source
                  solution for large scale molecular simulations"
                      Comput. Phys. Commun. 181, 1477 (2010)
                           doi:10.1016/j.cpc.2010.04.018

                                      AUTHORS
                                      -------
          E. Apra, E. J. Bylaska, W. A. de Jong, N. Govind, K. Kowalski,
       T. P. Straatsma, M. Valiev, H. J. J. van Dam, D. Wang, T. L. Windus,
        J. Hammond, J. Autschbach, K. Bhaskaran-Nair, J. Brabec, K. Lopata,
    S. A. Fischer, S. Krishnamoorthy, M. Jacquelin, W. Ma, M. Klemm, O. Villa,
      Y. Chen, V. Anisimov, F. Aquino, S. Hirata, M. T. Hackler, V. Konjkov,
      T. Risthaus, M. Malagoli, A. Marenich, A. Otero-de-la-Roza, J. Mullin,
        P. Nichols, R. Peverati, J. Pittner, Y. Zhao, P.-D. Fan, A. Fonari,
       M. Williamson, R. J. Harrison, J. R. Rehr, M. Dupuis, D. Silverstein,
    D. M. A. Smith, J. Nieplocha, V. Tipparaju, M. Krishnan, B. E. Van Kuiken,
        A. Vazquez-Mayagoitia, L. Jensen, M. Swart, Q. Wu, T. Van Voorhis,
     A. A. Auer, M. Nooijen, L. D. Crosby, E. Brown, G. Cisneros, G. I. Fann,
   H. Fruchtl, J. Garza, K. Hirao, R. A. Kendall, J. A. Nichols, K. Tsemekhman,
    K. Wolinski, J. Anchell, D. E. Bernholdt, P. Borowski, T. Clark, D. Clerc,
   H. Dachsel, M. J. O. Deegan, K. Dyall, D. Elwood, E. Glendening, M. Gutowski,
   A. C. Hess, J. Jaffe, B. G. Johnson, J. Ju, R. Kobayashi, R. Kutteh, Z. Lin,
   R. Littlefield, X. Long, B. Meng, T. Nakajima, S. Niu, L. Pollack, M. Rosing,
   K. Glaesemann, G. Sandrone, M. Stave, H. Taylor, G. Thomas, J. H. van Lenthe,
                               A. T. Wong, Z. Zhang.

 Total times  cpu:     3905.3s     wall:     4539.6s
