 argument  1 = input-wf.nw



============================== echo of input deck ==============================
echo
start wfn1_dat
geometry units au noautoz
  H 0 0 -1.44434600000000000000
  H 0 0  1.44434600000000000000
  symmetry cs
end
basis
  H library 6-31g**
end
set wfn1:input_vectors "atomic"
set wfn1:solver "monte-carlo"
set wfn1:print_error F
set wfn1:t_initial 0.1
#set wfn1:corr_expr "wfn1_mx"
set wfn1:corr_expr "wfn1c"
set wfn1:t_bath 0.0
set wfn1:maxit  20000
task wfn1 energy
================================================================================


                                         
                                         


              Northwest Computational Chemistry Package (NWChem) 6.8
              ------------------------------------------------------


                    Environmental Molecular Sciences Laboratory
                       Pacific Northwest National Laboratory
                                Richland, WA 99352

                              Copyright (c) 1994-2015
                       Pacific Northwest National Laboratory
                            Battelle Memorial Institute

             NWChem is an open-source computational chemistry package
                        distributed under the terms of the
                      Educational Community License (ECL) 2.0
             A copy of the license is included with this distribution
                              in the LICENSE.TXT file

                                  ACKNOWLEDGMENT
                                  --------------

            This software and its documentation were developed at the
            EMSL at Pacific Northwest National Laboratory, a multiprogram
            national laboratory, operated for the U.S. Department of Energy
            by Battelle under Contract Number DE-AC05-76RL01830. Support
            for this work was provided by the Department of Energy Office
            of Biological and Environmental Research, Office of Basic
            Energy Sciences, and the Office of Advanced Scientific Computing.


           Job information
           ---------------

    hostname        = erato
    program         = ../../../bin/LINUX64/nwchem
    date            = Mon Mar  1 14:04:00 2021

    compiled        = Sun_Feb_28_18:02:42_2021
    source          = /home/hvandam/nwchem-1-wfn1
    nwchem branch   = Development
    nwchem revision = nwchem_on_git-124-gad72d19fff205e319ffbbf2bca37a04ded6ad57b
    ga revision     = nwchem_on_git-124-gad72d19
    use scalapack   = F
    input           = input-wf.nw
    prefix          = wfn1_dat.
    data base       = ./wfn1_dat.db
    status          = startup
    nproc           =        1
    time left       =     -1s



           Memory information
           ------------------

    heap     =   13107198 doubles =    100.0 Mbytes
    stack    =   13107195 doubles =    100.0 Mbytes
    global   =   26214400 doubles =    200.0 Mbytes (distinct from heap & stack)
    total    =   52428793 doubles =    400.0 Mbytes
    verify   = yes
    hardfail = no 


           Directory information
           ---------------------

  0 permanent = .
  0 scratch   = .




                                NWChem Input Module
                                -------------------


 Turning off AUTOSYM since
 SYMMETRY directive was detected!



                             Geometry "geometry" -> ""
                             -------------------------

 Output coordinates in a.u. (scale by  1.000000000 to convert to a.u.)

  No.       Tag          Charge          X              Y              Z
 ---- ---------------- ---------- -------------- -------------- --------------
    1 H                    1.0000     0.00000000     0.00000000    -1.44434600
    2 H                    1.0000     0.00000000     0.00000000     1.44434600

      Atomic Mass 
      ----------- 

      H                  1.007825


 Effective nuclear repulsion energy (a.u.)       0.3461774395

            Nuclear Dipole moment (a.u.) 
            ----------------------------
        X                 Y               Z
 ---------------- ---------------- ----------------
     0.0000000000     0.0000000000     0.0000000000

      Symmetry information
      --------------------

 Group name             Cs        
 Group number              2
 Group order               2
 No. of unique centers     1

      Symmetry unique atoms

     1


            XYZ format geometry
            -------------------
     2
 geometry
 H                     0.00000000     0.00000000    -0.76431504
 H                     0.00000000     0.00000000     0.76431504

                      Basis "ao basis" -> "" (cartesian)
                      -----
  H (Hydrogen)
  ------------
            Exponent  Coefficients 
       -------------- ---------------------------------------------------------
  1 S  1.87311370E+01  0.033495
  1 S  2.82539370E+00  0.234727
  1 S  6.40121700E-01  0.813757

  2 S  1.61277800E-01  1.000000

  3 P  1.10000000E+00  1.000000



 Summary of "ao basis" -> "" (cartesian)
 ------------------------------------------------------------------------------
       Tag                 Description            Shells   Functions and Types
 ---------------- ------------------------------  ------  ---------------------
 H                          6-31g**                  3        5   2s1p



                                NWChem WFN1 Module
                                ------------------



          No. of electrons :     2
           Alpha electrons :     1
            Beta electrons :     1
          Charge           :     0
          Spin multiplicity:     1

 HvD: wfn1_inpdft
 HvD: nquad_task =                     1
 HvD: iangquad   =                     0
 HvD: gridtype   = user      
 HvD: leb        =  T
 HvD: radgrid    = murakn    
 HvD: trunc_neigh=  T
 HvD: lssw       =  T
 HvD: whichssw   = erf1    
 HvD: mxnrad     =                     0
 HvD: mxnang     =                     0
 HVD: wfn1: movecs_in  = atomic                                                                                                                                                                                                                                                          
 HVD: wfn1: movecs_out = ./wfn1_dat.movecs                                                                                                                                                                                                                                               

      Superposition of Atomic Density Guess
      -------------------------------------

 Sum of atomic energies:          -0.99646508

      Non-variational initial energy
      ------------------------------

 Total energy =      -0.723490
 1-e energy   =      -1.682528
 2-e energy   =       0.612860
 HOMO         =      -0.333357
 LUMO         =      -0.032633

 iteration              energy           error
 ---------              ------           -----
         0         -0.98796349        0.200000
         1         -0.99246039        0.200000
         2         -0.99328963        0.200000
         3         -0.99484109        0.200000
         4         -0.99572318        0.200000
         5         -0.99583654        0.200000
         6         -0.99619212        0.200000
         7         -0.99772518        0.200000
         8         -0.99836808        0.200000
         9         -0.99901235        0.200000
        10         -0.99946887        0.200000
        11         -0.99949400        0.185175
        12         -0.99953142        0.185175
        13         -0.99956754        0.171449
        14         -0.99976744        0.158740
        15         -1.00057939        0.158740
        16         -1.00072644        0.136079
        17         -1.00081462        0.125992
        18         -1.00103894        0.125992
        19         -1.00116127        0.125992
        20         -1.00121373        0.125992
        21         -1.00136508        0.092587
        22         -1.00142891        0.092587
        23         -1.00142927        0.092587
        24         -1.00144501        0.092587
        25         -1.00160347        0.073487
        26         -1.00166143        0.068040
        27         -1.00176317        0.068040
        28         -1.00181880        0.068040
        29         -1.00182055        0.062996
        30         -1.00191389        0.054003
        31         -1.00200808        0.046294
        32         -1.00201651        0.039685
        33         -1.00202846        0.039685
        34         -1.00203550        0.036743
        35         -1.00206240        0.036743
        36         -1.00207618        0.036743
        37         -1.00208534        0.036743
        38         -1.00209076        0.029163
        39         -1.00212386        0.029163
        40         -1.00212392        0.029163
        41         -1.00213539        0.029163
        42         -1.00213600        0.025000
        43         -1.00214776        0.025000
        44         -1.00215695        0.023147
        45         -1.00215873        0.023147
        46         -1.00216553        0.023147
        47         -1.00219907        0.023147
        48         -1.00220658        0.023147
        49         -1.00222632        0.023147
        50         -1.00222717        0.023147
        51         -1.00223736        0.023147
        52         -1.00224157        0.023147
        53         -1.00225816        0.023147
        54         -1.00229214        0.023147
        55         -1.00229216        0.023147
        56         -1.00229662        0.023147
        57         -1.00229914        0.023147
        58         -1.00230190        0.023147
        59         -1.00230438        0.023147
        60         -1.00231384        0.023147
        61         -1.00231895        0.021431
        62         -1.00232202        0.021431
        63         -1.00233534        0.021431
        64         -1.00234558        0.021431
        65         -1.00234948        0.021431
        66         -1.00235252        0.019843
        67         -1.00237436        0.018372
        68         -1.00237869        0.018372
        69         -1.00238470        0.018372
        70         -1.00238503        0.018372
        71         -1.00239426        0.018372
        72         -1.00239511        0.017010
        73         -1.00239654        0.017010
        74         -1.00240026        0.017010
        75         -1.00240516        0.017010
        76         -1.00241363        0.017010
        77         -1.00242331        0.017010
        78         -1.00242350        0.017010
        79         -1.00242463        0.017010
        80         -1.00242908        0.017010
        81         -1.00242978        0.017010
        82         -1.00243457        0.017010
        83         -1.00243602        0.017010
        84         -1.00244775        0.017010
        85         -1.00244802        0.017010
        86         -1.00244938        0.017010
        87         -1.00245083        0.017010
        88         -1.00245323        0.017010
        89         -1.00246281        0.017010
        90         -1.00247715        0.017010
        91         -1.00247882        0.017010
        92         -1.00248839        0.017010
        93         -1.00249167        0.017010
        94         -1.00249265        0.017010
        95         -1.00249324        0.017010
        96         -1.00249470        0.017010
        97         -1.00249520        0.017010
        98         -1.00249722        0.017010
        99         -1.00249730        0.017010
       100         -1.00249848        0.017010
       101         -1.00250166        0.017010
       102         -1.00250335        0.017010
       103         -1.00251157        0.017010
       104         -1.00251546        0.017010
       105         -1.00252329        0.017010
       106         -1.00252538        0.017010
       107         -1.00252701        0.017010
       108         -1.00252760        0.017010
       109         -1.00252765        0.017010
       110         -1.00253618        0.017010
       111         -1.00254441        0.017010
       112         -1.00255641        0.017010
       113         -1.00256567        0.017010
       114         -1.00256578        0.015749
       115         -1.00256954        0.015749
       116         -1.00257146        0.015749
       117         -1.00257491        0.015749
       118         -1.00257975        0.015749
       119         -1.00258488        0.015749
       120         -1.00259284        0.014582
       121         -1.00259536        0.014582
       122         -1.00259594        0.014582
       123         -1.00259603        0.014582
       124         -1.00260169        0.014582
       125         -1.00261087        0.014582
       126         -1.00261327        0.014582
       127         -1.00261336        0.014582
       128         -1.00261413        0.014582
       129         -1.00261650        0.014582
       130         -1.00261771        0.014582
       131         -1.00262236        0.014582
       132         -1.00262386        0.014582
       133         -1.00262772        0.014582
       134         -1.00263070        0.011573
       135         -1.00263215        0.011573
       136         -1.00263430        0.011573
       137         -1.00263805        0.011573
       138         -1.00264166        0.011573
       139         -1.00264426        0.011573
       140         -1.00264783        0.011573
       141         -1.00264929        0.011573
       142         -1.00265938        0.011573
       143         -1.00265942        0.011573
       144         -1.00266411        0.011573
       145         -1.00266855        0.011573
       146         -1.00267005        0.010716
       147         -1.00267193        0.010716
       148         -1.00267221        0.010716
       149         -1.00267441        0.010716
       150         -1.00267510        0.010716
       151         -1.00267544        0.010716
       152         -1.00268005        0.010716
       153         -1.00268154        0.010716
       154         -1.00268170        0.010716
       155         -1.00268171        0.010716
       156         -1.00268837        0.010716
       157         -1.00269172        0.010716
       158         -1.00269624        0.009921
       159         -1.00269638        0.009921
       160         -1.00270028        0.009921
       161         -1.00270028        0.009186
       162         -1.00270584        0.009186
       163         -1.00270890        0.009186
       164         -1.00271043        0.009186
       165         -1.00271072        0.009186
       166         -1.00271117        0.009186
       167         -1.00271504        0.009186
       168         -1.00271525        0.009186
       169         -1.00271934        0.009186
       170         -1.00272229        0.009186
       171         -1.00272348        0.009186
       172         -1.00272771        0.009186
       173         -1.00273005        0.009186
       174         -1.00273119        0.009186
       175         -1.00273174        0.009186
       176         -1.00273226        0.009186
       177         -1.00273557        0.009186
       178         -1.00273704        0.009186
       179         -1.00273711        0.009186
       180         -1.00273921        0.009186
       181         -1.00273968        0.009186
       182         -1.00274014        0.009186
       183         -1.00274595        0.009186
       184         -1.00274598        0.009186
       185         -1.00275210        0.009186
       186         -1.00275212        0.009186
       187         -1.00275651        0.009186
       188         -1.00275778        0.009186
       189         -1.00275943        0.009186
       190         -1.00276411        0.009186
       191         -1.00276541        0.009186
       192         -1.00276747        0.009186
       193         -1.00277025        0.009186
       194         -1.00277035        0.009186
       195         -1.00277088        0.009186
       196         -1.00277116        0.009186
       197         -1.00277123        0.009186
       198         -1.00277584        0.009186
       199         -1.00278063        0.009186
       200         -1.00278242        0.009186
       201         -1.00278724        0.009186
       202         -1.00278743        0.009186
       203         -1.00278785        0.009186
       204         -1.00278998        0.009186
       205         -1.00279453        0.009186
       206         -1.00279942        0.009186
       207         -1.00280157        0.009186
       208         -1.00280315        0.009186
       209         -1.00280568        0.009186
       210         -1.00280881        0.009186
       211         -1.00281072        0.009186
       212         -1.00281148        0.009186
       213         -1.00281858        0.009186
       214         -1.00282080        0.008505
       215         -1.00282111        0.008505
       216         -1.00282121        0.008505
       217         -1.00282135        0.008505
       218         -1.00282181        0.008505
       219         -1.00282424        0.008505
       220         -1.00282786        0.008505
       221         -1.00282862        0.008505
       222         -1.00283192        0.008505
       223         -1.00283430        0.008505
       224         -1.00283494        0.008505
       225         -1.00283655        0.008505
       226         -1.00283745        0.008505
       227         -1.00284171        0.008505
       228         -1.00284315        0.008505
       229         -1.00284370        0.008505
       230         -1.00284609        0.008505
       231         -1.00284951        0.008505
       232         -1.00285324        0.008505
       233         -1.00285442        0.008505
       234         -1.00285527        0.008505
       235         -1.00285756        0.007875
       236         -1.00285760        0.007875
       237         -1.00285828        0.007875
       238         -1.00286649        0.007875
       239         -1.00286761        0.007875
       240         -1.00287041        0.007875
       241         -1.00287221        0.007875
       242         -1.00287224        0.007875
       243         -1.00287495        0.007875
       244         -1.00287872        0.007875
       245         -1.00287883        0.007875
       246         -1.00288193        0.007875
       247         -1.00288258        0.007875
       248         -1.00288275        0.007875
       249         -1.00288509        0.007875
       250         -1.00288629        0.007875
       251         -1.00288711        0.007875
       252         -1.00289075        0.007875
       253         -1.00289737        0.007875
       254         -1.00289797        0.007875
       255         -1.00289870        0.007875
       256         -1.00289961        0.007875
       257         -1.00290439        0.007875
       258         -1.00290644        0.007875
       259         -1.00290877        0.007875
       260         -1.00291533        0.007875
       261         -1.00291550        0.007875
       262         -1.00291772        0.007875
       263         -1.00291922        0.007875
       264         -1.00291929        0.007875
       265         -1.00292028        0.007875
       266         -1.00292160        0.007875
       267         -1.00292287        0.007875
       268         -1.00292646        0.007875
       269         -1.00292791        0.007875
       270         -1.00292824        0.007875
       271         -1.00293067        0.007875
       272         -1.00293120        0.007875
       273         -1.00293153        0.007875
       274         -1.00293267        0.007875
       275         -1.00293372        0.007875
       276         -1.00293632        0.007875
       277         -1.00293801        0.007875
       278         -1.00293888        0.007875
       279         -1.00294148        0.007875
       280         -1.00294441        0.007875
       281         -1.00294459        0.007875
       282         -1.00294893        0.007875
       283         -1.00294896        0.007875
       284         -1.00295309        0.007875
       285         -1.00295382        0.007875
       286         -1.00295553        0.007875
       287         -1.00295739        0.007875
       288         -1.00295852        0.007875
       289         -1.00296084        0.007875
       290         -1.00296280        0.007875
       291         -1.00296602        0.007875
       292         -1.00296782        0.007875
       293         -1.00296872        0.007875
       294         -1.00296954        0.007875
       295         -1.00296964        0.007875
       296         -1.00297069        0.007875
       297         -1.00297082        0.007875
       298         -1.00297193        0.007875
       299         -1.00297198        0.007875
       300         -1.00297502        0.007875
       301         -1.00297544        0.007875
       302         -1.00297646        0.007875
       303         -1.00298180        0.007875
       304         -1.00298372        0.007875
       305         -1.00298517        0.007875
       306         -1.00298673        0.007875
       307         -1.00298794        0.007875
       308         -1.00298826        0.007875
       309         -1.00298898        0.007875
       310         -1.00298997        0.007875
       311         -1.00299232        0.007875
       312         -1.00299258        0.007875
       313         -1.00299308        0.007875
       314         -1.00299639        0.007875
       315         -1.00299841        0.007875
       316         -1.00299966        0.007875
       317         -1.00300003        0.007291
       318         -1.00300157        0.007291
       319         -1.00300290        0.007291
       320         -1.00300310        0.007291
       321         -1.00300453        0.007291
       322         -1.00300964        0.007291
       323         -1.00301122        0.007291
       324         -1.00301435        0.007291
       325         -1.00301663        0.007291
       326         -1.00301694        0.007291
       327         -1.00301751        0.007291
       328         -1.00302056        0.007291
       329         -1.00302127        0.007291
       330         -1.00302189        0.007291
       331         -1.00302235        0.007291
       332         -1.00302494        0.007291
       333         -1.00302567        0.007291
       334         -1.00302573        0.007291
       335         -1.00302837        0.007291
       336         -1.00302848        0.007291
       337         -1.00302878        0.007291
       338         -1.00302922        0.007291
       339         -1.00303036        0.007291
       340         -1.00303098        0.007291
       341         -1.00303463        0.007291
       342         -1.00303666        0.007291
       343         -1.00303727        0.007291
       344         -1.00303821        0.007291
       345         -1.00303858        0.007291
       346         -1.00304138        0.007291
       347         -1.00304246        0.007291
       348         -1.00304331        0.007291
       349         -1.00304383        0.007291
       350         -1.00304708        0.007291
       351         -1.00304713        0.007291
       352         -1.00304765        0.007291
       353         -1.00305025        0.007291
       354         -1.00305180        0.007291
       355         -1.00305274        0.007291
       356         -1.00305319        0.007291
       357         -1.00305535        0.007291
       358         -1.00305671        0.007291
       359         -1.00305819        0.007291
       360         -1.00305876        0.007291
       361         -1.00306009        0.007291
       362         -1.00306328        0.007291
       363         -1.00306353        0.007291
       364         -1.00306419        0.007291
       365         -1.00306451        0.007291
       366         -1.00306521        0.007291
       367         -1.00306712        0.007291
       368         -1.00306898        0.007291
       369         -1.00307004        0.006750
       370         -1.00307155        0.006750
       371         -1.00307247        0.006750
       372         -1.00307316        0.006750
       373         -1.00307433        0.006750
       374         -1.00307606        0.006750
       375         -1.00307932        0.006750
       376         -1.00308153        0.006750
       377         -1.00308240        0.006750
       378         -1.00308515        0.006750
       379         -1.00308526        0.006750
       380         -1.00308589        0.006750
       381         -1.00308691        0.006750
       382         -1.00308876        0.006750
       383         -1.00309151        0.006750
       384         -1.00309179        0.006750
       385         -1.00309261        0.006750
       386         -1.00309380        0.006750
       387         -1.00309461        0.006750
       388         -1.00309474        0.006750
       389         -1.00309741        0.006750
       390         -1.00309923        0.006750
       391         -1.00310014        0.006750
       392         -1.00310077        0.006750
       393         -1.00310079        0.006750
       394         -1.00310227        0.006750
       395         -1.00310469        0.006750
       396         -1.00310594        0.006750
       397         -1.00310633        0.006750
       398         -1.00310830        0.006750
       399         -1.00310832        0.006750
       400         -1.00310915        0.006250
       401         -1.00311021        0.006250
       402         -1.00311112        0.006250
       403         -1.00311356        0.006250
       404         -1.00311433        0.006250
       405         -1.00311515        0.006250
       406         -1.00311547        0.006250
       407         -1.00311698        0.006250
       408         -1.00311889        0.006250
       409         -1.00311896        0.006250
       410         -1.00311993        0.006250
       411         -1.00311993        0.006250
       412         -1.00312132        0.006250
       413         -1.00312139        0.006250
       414         -1.00312199        0.006250
       415         -1.00312406        0.006250
       416         -1.00312466        0.006250
       417         -1.00312890        0.006250
       418         -1.00312938        0.006250
       419         -1.00312989        0.006250
       420         -1.00313025        0.006250
       421         -1.00313192        0.006250
       422         -1.00313206        0.006250
       423         -1.00313385        0.006250
       424         -1.00313547        0.006250
       425         -1.00313590        0.006250
       426         -1.00313657        0.006250
       427         -1.00313750        0.006250
       428         -1.00314033        0.006250
       429         -1.00314071        0.006250
       430         -1.00314220        0.006250
       431         -1.00314364        0.006250
       432         -1.00314399        0.006250
       433         -1.00314465        0.006250
       434         -1.00314966        0.006250
       435         -1.00314966        0.006250
       436         -1.00314988        0.006250
       437         -1.00315038        0.006250
       438         -1.00315251        0.006250
       439         -1.00315289        0.006250
       440         -1.00315405        0.006250
       441         -1.00315567        0.005787
       442         -1.00315840        0.005787
       443         -1.00316141        0.005787
       444         -1.00316183        0.005787
       445         -1.00316279        0.005787
       446         -1.00316308        0.005787
       447         -1.00316411        0.005787
       448         -1.00316547        0.005787
       449         -1.00316610        0.005787
       450         -1.00316707        0.005787
       451         -1.00316742        0.005787
       452         -1.00316761        0.005787
       453         -1.00316785        0.005787
       454         -1.00317059        0.005787
       455         -1.00317131        0.005787
       456         -1.00317251        0.005787
       457         -1.00317261        0.005787
       458         -1.00317295        0.005787
       459         -1.00317340        0.005787
       460         -1.00317377        0.005787
       461         -1.00317536        0.005787
       462         -1.00317565        0.005787
       463         -1.00317746        0.005787
       464         -1.00317747        0.005787
       465         -1.00317774        0.005787
       466         -1.00317797        0.005787
       467         -1.00317873        0.005787
       468         -1.00317987        0.005787
       469         -1.00318115        0.005787
       470         -1.00318287        0.005787
       471         -1.00318392        0.005787
       472         -1.00318607        0.005787
       473         -1.00318758        0.005787
       474         -1.00318984        0.005787
       475         -1.00319258        0.005787
       476         -1.00319378        0.005787
       477         -1.00319383        0.005787
       478         -1.00319576        0.005787
       479         -1.00319585        0.005787
       480         -1.00319783        0.005787
       481         -1.00319894        0.005787
       482         -1.00319926        0.005787
       483         -1.00319951        0.005787
       484         -1.00320011        0.005787
       485         -1.00320169        0.005787
       486         -1.00320402        0.005787
       487         -1.00320535        0.005787
       488         -1.00320555        0.005787
       489         -1.00320602        0.005787
       490         -1.00320626        0.005787
       491         -1.00320649        0.005787
       492         -1.00320689        0.005787
       493         -1.00320702        0.005787
       494         -1.00320783        0.005787
       495         -1.00320812        0.005787
       496         -1.00320862        0.005787
       497         -1.00321057        0.005787
       498         -1.00321418        0.005787
       499         -1.00321424        0.005787
       500         -1.00321495        0.005787
       501         -1.00321607        0.005787
       502         -1.00321695        0.005787
       503         -1.00321716        0.005787
       504         -1.00321799        0.005787
       505         -1.00322003        0.005787
       506         -1.00322223        0.005787
       507         -1.00322238        0.005787
       508         -1.00322314        0.005787
       509         -1.00322351        0.005787
       510         -1.00322530        0.005787
       511         -1.00322570        0.005787
       512         -1.00322640        0.005787
       513         -1.00322640        0.005787
       514         -1.00322929        0.005787
       515         -1.00322954        0.005787
       516         -1.00323046        0.005787
       517         -1.00323101        0.005787
       518         -1.00323488        0.005787
       519         -1.00323569        0.005787
       520         -1.00323615        0.005787
       521         -1.00323861        0.005787
       522         -1.00324045        0.005787
       523         -1.00324416        0.005787
       524         -1.00324434        0.005787
       525         -1.00324498        0.005787
       526         -1.00324589        0.005787
       527         -1.00324764        0.005787
       528         -1.00324774        0.005787
       529         -1.00324830        0.005787
       530         -1.00325046        0.005787
       531         -1.00325070        0.005787
       532         -1.00325072        0.005787
       533         -1.00325265        0.005787
       534         -1.00325303        0.005787
       535         -1.00325338        0.005787
       536         -1.00325386        0.005787
       537         -1.00325531        0.005787
       538         -1.00325555        0.005787
       539         -1.00325599        0.005787
       540         -1.00325641        0.005787
       541         -1.00325747        0.005787
       542         -1.00325748        0.005787
       543         -1.00326009        0.005787
       544         -1.00326033        0.005787
       545         -1.00326084        0.005787
       546         -1.00326131        0.005787
       547         -1.00326185        0.005787
       548         -1.00326271        0.005787
       549         -1.00326472        0.005787
       550         -1.00326540        0.005787
       551         -1.00326602        0.005787
       552         -1.00326898        0.005787
       553         -1.00326952        0.005787
       554         -1.00326952        0.005787
       555         -1.00327095        0.005787
       556         -1.00327118        0.005787
       557         -1.00327403        0.005787
       558         -1.00327417        0.005787
       559         -1.00327531        0.005787
       560         -1.00327559        0.005787
       561         -1.00327695        0.005787
       562         -1.00327780        0.005787
       563         -1.00327981        0.005787
       564         -1.00328019        0.005787
       565         -1.00328101        0.005787
       566         -1.00328209        0.005787
       567         -1.00328253        0.005787
       568         -1.00328471        0.005787
       569         -1.00328549        0.005787
       570         -1.00328600        0.005787
       571         -1.00328769        0.005787
       572         -1.00328878        0.005787
       573         -1.00328976        0.005787
       574         -1.00329016        0.005787
       575         -1.00329030        0.005787
       576         -1.00329110        0.005787
       577         -1.00329246        0.005787
       578         -1.00329323        0.005787
       579         -1.00329486        0.005787
       580         -1.00329556        0.005787
       581         -1.00329784        0.005787
       582         -1.00329832        0.005787
       583         -1.00330111        0.005787
       584         -1.00330184        0.005787
       585         -1.00330189        0.005787
       586         -1.00330212        0.005787
       587         -1.00330288        0.005787
       588         -1.00330712        0.005787
       589         -1.00330856        0.005787
       590         -1.00330953        0.005787
       591         -1.00331054        0.005787
       592         -1.00331056        0.005787
       593         -1.00331113        0.005787
       594         -1.00331467        0.005787
       595         -1.00331472        0.005358
       596         -1.00331520        0.005358
       597         -1.00331644        0.005358
       598         -1.00331721        0.005358
       599         -1.00331727        0.005358
       600         -1.00331741        0.005358
       601         -1.00331777        0.005358
       602         -1.00331953        0.005358
       603         -1.00332063        0.005358
       604         -1.00332130        0.005358
       605         -1.00332199        0.005358
       606         -1.00332236        0.005358
       607         -1.00332295        0.005358
       608         -1.00332392        0.005358
       609         -1.00332399        0.005358
       610         -1.00332443        0.005358
       611         -1.00332577        0.005358
       612         -1.00332600        0.005358
       613         -1.00332669        0.005358
       614         -1.00332959        0.005358
       615         -1.00333173        0.005358
       616         -1.00333351        0.005358
       617         -1.00333580        0.005358
       618         -1.00333635        0.005358
       619         -1.00333720        0.005358
       620         -1.00333728        0.005358
       621         -1.00333777        0.005358
       622         -1.00333783        0.005358
       623         -1.00333945        0.005358
       624         -1.00333946        0.005358
       625         -1.00334153        0.005358
       626         -1.00334291        0.005358
       627         -1.00334362        0.005358
       628         -1.00334606        0.005358
       629         -1.00334739        0.005358
       630         -1.00334796        0.005358
       631         -1.00334864        0.005358
       632         -1.00334957        0.005358
       633         -1.00335052        0.005358
       634         -1.00335148        0.005358
       635         -1.00335321        0.005358
       636         -1.00335412        0.005358
       637         -1.00335465        0.005358
       638         -1.00335538        0.005358
       639         -1.00335642        0.005358
       640         -1.00335740        0.005358
       641         -1.00335826        0.005358
       642         -1.00335886        0.005358
       643         -1.00335980        0.005358
       644         -1.00336191        0.005358
       645         -1.00336294        0.005358
       646         -1.00336296        0.005358
       647         -1.00336513        0.005358
       648         -1.00336571        0.005358
       649         -1.00336747        0.005358
       650         -1.00336786        0.005358
       651         -1.00336845        0.005358
       652         -1.00336882        0.005358
       653         -1.00336967        0.005358
       654         -1.00337001        0.005358
       655         -1.00337026        0.005358
       656         -1.00337187        0.005358
       657         -1.00337283        0.005358
       658         -1.00337354        0.005358
       659         -1.00337406        0.005358
       660         -1.00337531        0.005358
       661         -1.00337608        0.005358
       662         -1.00337657        0.005358
       663         -1.00337704        0.005358
       664         -1.00337750        0.005358
       665         -1.00337809        0.005358
       666         -1.00337881        0.005358
       667         -1.00337927        0.005358
       668         -1.00337958        0.005358
       669         -1.00338058        0.005358
       670         -1.00338201        0.005358
       671         -1.00338295        0.005358
       672         -1.00338306        0.005358
       673         -1.00338378        0.005358
       674         -1.00338406        0.005358
       675         -1.00338455        0.005358
       676         -1.00338474        0.005358
       677         -1.00338597        0.005358
       678         -1.00338617        0.005358
       679         -1.00338709        0.005358
       680         -1.00338756        0.005358
       681         -1.00338795        0.005358
       682         -1.00338815        0.005358
       683         -1.00338943        0.005358
       684         -1.00338945        0.005358
       685         -1.00339116        0.005358
       686         -1.00339186        0.005358
       687         -1.00339243        0.005358
       688         -1.00339249        0.005358
       689         -1.00339313        0.005358
       690         -1.00339380        0.005358
       691         -1.00339438        0.005358
       692         -1.00339534        0.005358
       693         -1.00339538        0.005358
       694         -1.00339603        0.005358
       695         -1.00339705        0.005358
       696         -1.00339715        0.005358
       697         -1.00339768        0.005358
       698         -1.00339837        0.005358
       699         -1.00339913        0.005358
       700         -1.00339966        0.005358
       701         -1.00340010        0.005358
       702         -1.00340057        0.005358
       703         -1.00340119        0.005358
       704         -1.00340320        0.005358
       705         -1.00340762        0.005358
       706         -1.00340777        0.005358
       707         -1.00340820        0.005358
       708         -1.00340943        0.005358
       709         -1.00341019        0.005358
       710         -1.00341239        0.005358
       711         -1.00341402        0.005358
       712         -1.00341439        0.005358
       713         -1.00341571        0.005358
       714         -1.00341639        0.005358
       715         -1.00341749        0.005358
       716         -1.00341911        0.005358
       717         -1.00342000        0.005358
       718         -1.00342159        0.005358
       719         -1.00342161        0.005358
       720         -1.00342233        0.005358
       721         -1.00342491        0.005358
       722         -1.00342604        0.005358
       723         -1.00342799        0.005358
       724         -1.00342847        0.005358
       725         -1.00342850        0.005358
       726         -1.00342893        0.005358
       727         -1.00342971        0.005358
       728         -1.00342974        0.005358
       729         -1.00343027        0.005358
       730         -1.00343047        0.005358
       731         -1.00343062        0.005358
       732         -1.00343101        0.005358
       733         -1.00343160        0.005358
       734         -1.00343243        0.005358
       735         -1.00343410        0.005358
       736         -1.00343487        0.005358
       737         -1.00343602        0.005358
       738         -1.00343741        0.005358
       739         -1.00343875        0.005358
       740         -1.00343885        0.005358
       741         -1.00343975        0.005358
       742         -1.00344060        0.005358
       743         -1.00344081        0.005358
       744         -1.00344137        0.005358
       745         -1.00344374        0.005358
       746         -1.00344418        0.005358
       747         -1.00344475        0.005358
       748         -1.00344520        0.005358
       749         -1.00344602        0.005358
       750         -1.00344706        0.005358
       751         -1.00344825        0.005358
       752         -1.00344856        0.005358
       753         -1.00344983        0.005358
       754         -1.00344985        0.005358
       755         -1.00344994        0.005358
       756         -1.00345293        0.005358
       757         -1.00345434        0.005358
       758         -1.00345485        0.005358
       759         -1.00345533        0.005358
       760         -1.00345670        0.005358
       761         -1.00345733        0.005358
       762         -1.00345982        0.005358
       763         -1.00346046        0.005358
       764         -1.00346063        0.005358
       765         -1.00346099        0.005358
       766         -1.00346294        0.005358
       767         -1.00346350        0.005358
       768         -1.00346379        0.004961
       769         -1.00346411        0.004961
       770         -1.00346490        0.004961
       771         -1.00346494        0.004961
       772         -1.00346605        0.004961
       773         -1.00346902        0.004961
       774         -1.00347089        0.004961
       775         -1.00347114        0.004961
       776         -1.00347178        0.004961
       777         -1.00347218        0.004961
       778         -1.00347223        0.004961
       779         -1.00347274        0.004961
       780         -1.00347308        0.004961
       781         -1.00347365        0.004961
       782         -1.00347512        0.004961
       783         -1.00347742        0.004961
       784         -1.00347908        0.004961
       785         -1.00348094        0.004961
       786         -1.00348172        0.004961
       787         -1.00348248        0.004961
       788         -1.00348307        0.004961
       789         -1.00348336        0.004961
       790         -1.00348449        0.004961
       791         -1.00348533        0.004961
       792         -1.00348653        0.004961
       793         -1.00348703        0.004961
       794         -1.00348803        0.004961
       795         -1.00348840        0.004961
       796         -1.00348929        0.004961
       797         -1.00349008        0.004961
       798         -1.00349021        0.004961
       799         -1.00349044        0.004961
       800         -1.00349104        0.004961
       801         -1.00349150        0.004961
       802         -1.00349154        0.004961
       803         -1.00349277        0.004961
       804         -1.00349277        0.004961
       805         -1.00349303        0.004961
       806         -1.00349326        0.004961
       807         -1.00349391        0.004961
       808         -1.00349498        0.004961
       809         -1.00349511        0.004961
       810         -1.00349742        0.004961
       811         -1.00349948        0.004961
       812         -1.00350006        0.004961
       813         -1.00350017        0.004961
       814         -1.00350113        0.004961
       815         -1.00350229        0.004961
       816         -1.00350267        0.004961
       817         -1.00350369        0.004961
       818         -1.00350426        0.004961
       819         -1.00350427        0.004961
       820         -1.00350572        0.004961
       821         -1.00350706        0.004961
       822         -1.00350742        0.004961
       823         -1.00350840        0.004961
       824         -1.00350997        0.004961
       825         -1.00351008        0.004961
       826         -1.00351126        0.004961
       827         -1.00351165        0.004961
       828         -1.00351265        0.004961
       829         -1.00351272        0.004961
       830         -1.00351317        0.004961
       831         -1.00351412        0.004961
       832         -1.00351574        0.004961
       833         -1.00351584        0.004961
       834         -1.00351775        0.004961
       835         -1.00351852        0.004961
       836         -1.00351858        0.004961
       837         -1.00351873        0.004961
       838         -1.00351914        0.004961
       839         -1.00352108        0.004961
       840         -1.00352187        0.004961
       841         -1.00352340        0.004961
       842         -1.00352345        0.004961
       843         -1.00352398        0.004961
       844         -1.00352407        0.004961
       845         -1.00352521        0.004961
       846         -1.00352543        0.004961
       847         -1.00352602        0.004961
       848         -1.00352636        0.004961
       849         -1.00352660        0.004961
       850         -1.00352685        0.004961
       851         -1.00352715        0.004961
       852         -1.00352860        0.004961
       853         -1.00352937        0.004961
       854         -1.00352978        0.004961
       855         -1.00353099        0.004961
       856         -1.00353210        0.004961
       857         -1.00353225        0.004961
       858         -1.00353233        0.004961
       859         -1.00353303        0.004961
       860         -1.00353374        0.004961
       861         -1.00353414        0.004961
       862         -1.00353504        0.004961
       863         -1.00353509        0.004961
       864         -1.00353619        0.004961
       865         -1.00353646        0.004961
       866         -1.00353689        0.004961
       867         -1.00353847        0.004961
       868         -1.00353888        0.004961
       869         -1.00354034        0.004961
       870         -1.00354204        0.004961
       871         -1.00354223        0.004593
       872         -1.00354251        0.004593
       873         -1.00354313        0.004593
       874         -1.00354363        0.004593
       875         -1.00354523        0.004593
       876         -1.00354561        0.004593
       877         -1.00354642        0.004593
       878         -1.00354690        0.004593
       879         -1.00354693        0.004593
       880         -1.00354705        0.004593
       881         -1.00354751        0.004593
       882         -1.00354785        0.004593
       883         -1.00354796        0.004593
       884         -1.00354884        0.004593
       885         -1.00354896        0.004593
       886         -1.00354977        0.004593
       887         -1.00355077        0.004593
       888         -1.00355117        0.004593
       889         -1.00355150        0.004593
       890         -1.00355176        0.004593
       891         -1.00355181        0.004593
       892         -1.00355185        0.004593
       893         -1.00355210        0.004593
       894         -1.00355350        0.004593
       895         -1.00355399        0.004593
       896         -1.00355403        0.004593
       897         -1.00355432        0.004593
       898         -1.00355622        0.004593
       899         -1.00355689        0.004593
       900         -1.00355742        0.004593
       901         -1.00355753        0.004593
       902         -1.00355778        0.004593
       903         -1.00355833        0.004252
       904         -1.00355834        0.004252
       905         -1.00355835        0.004252
       906         -1.00355967        0.004252
       907         -1.00355974        0.004252
       908         -1.00356032        0.004252
       909         -1.00356097        0.004252
       910         -1.00356170        0.004252
       911         -1.00356355        0.004252
       912         -1.00356437        0.004252
       913         -1.00356502        0.004252
       914         -1.00356514        0.004252
       915         -1.00356647        0.004252
       916         -1.00356786        0.004252
       917         -1.00356819        0.004252
       918         -1.00356960        0.004252
       919         -1.00357044        0.004252
       920         -1.00357089        0.004252
       921         -1.00357182        0.004252
       922         -1.00357249        0.004252
       923         -1.00357268        0.004252
       924         -1.00357300        0.004252
       925         -1.00357331        0.004252
       926         -1.00357334        0.004252
       927         -1.00357334        0.004252
       928         -1.00357460        0.004252
       929         -1.00357533        0.004252
       930         -1.00357630        0.004252
       931         -1.00357713        0.004252
       932         -1.00357728        0.004252
       933         -1.00357737        0.004252
       934         -1.00357774        0.004252
       935         -1.00357861        0.004252
       936         -1.00357911        0.004252
       937         -1.00357958        0.004252
       938         -1.00358024        0.004252
       939         -1.00358035        0.004252
       940         -1.00358047        0.004252
       941         -1.00358164        0.004252
       942         -1.00358220        0.004252
       943         -1.00358292        0.004252
       944         -1.00358358        0.004252
       945         -1.00358372        0.004252
       946         -1.00358430        0.004252
       947         -1.00358431        0.004252
       948         -1.00358478        0.004252
       949         -1.00358554        0.004252
       950         -1.00358642        0.004252
       951         -1.00358652        0.004252
       952         -1.00358693        0.004252
       953         -1.00358873        0.004252
       954         -1.00358885        0.004252
       955         -1.00358888        0.004252
       956         -1.00358908        0.004252
       957         -1.00359007        0.004252
       958         -1.00359143        0.004252
       959         -1.00359381        0.004252
       960         -1.00359465        0.004252
       961         -1.00359474        0.004252
       962         -1.00359512        0.004252
       963         -1.00359591        0.004252
       964         -1.00359756        0.004252
       965         -1.00359927        0.004252
       966         -1.00360068        0.004252
       967         -1.00360166        0.004252
       968         -1.00360193        0.004252
       969         -1.00360227        0.003937
       970         -1.00360345        0.003937
       971         -1.00360393        0.003937
       972         -1.00360444        0.003937
       973         -1.00360533        0.003937
       974         -1.00360611        0.003937
       975         -1.00360768        0.003937
       976         -1.00360815        0.003937
       977         -1.00360861        0.003937
       978         -1.00360947        0.003937
       979         -1.00360961        0.003937
       980         -1.00360985        0.003937
       981         -1.00361003        0.003937
       982         -1.00361044        0.003937
       983         -1.00361044        0.003937
       984         -1.00361044        0.003937
       985         -1.00361072        0.003937
       986         -1.00361150        0.003937
       987         -1.00361196        0.003937
       988         -1.00361315        0.003937
       989         -1.00361351        0.003937
       990         -1.00361464        0.003937
       991         -1.00361607        0.003937
       992         -1.00361675        0.003937
       993         -1.00361841        0.003937
       994         -1.00361845        0.003937
       995         -1.00361880        0.003937
       996         -1.00361972        0.003937
       997         -1.00362002        0.003937
       998         -1.00362088        0.003937
       999         -1.00362099        0.003937
      1000         -1.00362110        0.003937
      1001         -1.00362157        0.003937
      1002         -1.00362209        0.003937
      1003         -1.00362240        0.003937
      1004         -1.00362300        0.003937
      1005         -1.00362319        0.003937
      1006         -1.00362328        0.003937
      1007         -1.00362366        0.003937
      1008         -1.00362411        0.003937
      1009         -1.00362489        0.003937
      1010         -1.00362497        0.003937
      1011         -1.00362499        0.003937
      1012         -1.00362519        0.003937
      1013         -1.00362594        0.003937
      1014         -1.00362650        0.003937
      1015         -1.00362691        0.003937
      1016         -1.00362729        0.003937
      1017         -1.00362826        0.003937
      1018         -1.00362874        0.003937
      1019         -1.00362883        0.003937
      1020         -1.00363057        0.003937
      1021         -1.00363059        0.003937
      1022         -1.00363060        0.003937
      1023         -1.00363083        0.003937
      1024         -1.00363125        0.003937
      1025         -1.00363216        0.003937
      1026         -1.00363232        0.003937
      1027         -1.00363249        0.003937
      1028         -1.00363254        0.003937
      1029         -1.00363331        0.003937
      1030         -1.00363340        0.003937
      1031         -1.00363363        0.003937
      1032         -1.00363372        0.003937
      1033         -1.00363460        0.003937
      1034         -1.00363504        0.003937
      1035         -1.00363554        0.003937
      1036         -1.00363648        0.003937
      1037         -1.00363668        0.003937
      1038         -1.00363858        0.003937
      1039         -1.00363890        0.003937
      1040         -1.00363991        0.003937
      1041         -1.00364018        0.003937
      1042         -1.00364170        0.003937
      1043         -1.00364207        0.003937
      1044         -1.00364238        0.003937
      1045         -1.00364476        0.003937
      1046         -1.00364516        0.003937
      1047         -1.00364548        0.003937
      1048         -1.00364643        0.003937
      1049         -1.00364702        0.003937
      1050         -1.00364820        0.003937
      1051         -1.00364865        0.003645
      1052         -1.00364910        0.003645
      1053         -1.00364972        0.003645
      1054         -1.00364990        0.003645
      1055         -1.00365026        0.003645
      1056         -1.00365076        0.003645
      1057         -1.00365094        0.003645
      1058         -1.00365109        0.003645
      1059         -1.00365150        0.003645
      1060         -1.00365206        0.003645
      1061         -1.00365208        0.003645
      1062         -1.00365232        0.003645
      1063         -1.00365243        0.003645
      1064         -1.00365297        0.003645
      1065         -1.00365354        0.003645
      1066         -1.00365477        0.003645
      1067         -1.00365504        0.003645
      1068         -1.00365506        0.003645
      1069         -1.00365562        0.003645
      1070         -1.00365584        0.003645
      1071         -1.00365629        0.003645
      1072         -1.00365631        0.003645
      1073         -1.00365683        0.003645
      1074         -1.00365683        0.003645
      1075         -1.00365765        0.003645
      1076         -1.00365835        0.003645
      1077         -1.00365851        0.003645
      1078         -1.00365942        0.003645
      1079         -1.00365948        0.003645
      1080         -1.00365969        0.003645
      1081         -1.00366010        0.003645
      1082         -1.00366072        0.003645
      1083         -1.00366080        0.003645
      1084         -1.00366110        0.003645
      1085         -1.00366206        0.003645
      1086         -1.00366231        0.003645
      1087         -1.00366311        0.003645
      1088         -1.00366314        0.003645
      1089         -1.00366347        0.003645
      1090         -1.00366397        0.003645
      1091         -1.00366429        0.003645
      1092         -1.00366474        0.003645
      1093         -1.00366525        0.003645
      1094         -1.00366568        0.003645
      1095         -1.00366613        0.003645
      1096         -1.00366669        0.003645
      1097         -1.00366670        0.003645
      1098         -1.00366832        0.003645
      1099         -1.00366836        0.003645
      1100         -1.00366881        0.003645
      1101         -1.00366971        0.003645
      1102         -1.00367021        0.003645
      1103         -1.00367059        0.003645
      1104         -1.00367137        0.003645
      1105         -1.00367166        0.003645
      1106         -1.00367215        0.003645
      1107         -1.00367221        0.003645
      1108         -1.00367274        0.003645
      1109         -1.00367363        0.003645
      1110         -1.00367433        0.003645
      1111         -1.00367475        0.003645
      1112         -1.00367560        0.003645
      1113         -1.00367660        0.003645
      1114         -1.00367662        0.003645
      1115         -1.00367707        0.003645
      1116         -1.00367817        0.003645
      1117         -1.00367844        0.003645
      1118         -1.00367875        0.003645
      1119         -1.00367913        0.003645
      1120         -1.00367978        0.003645
      1121         -1.00367987        0.003645
      1122         -1.00368054        0.003645
      1123         -1.00368080        0.003645
      1124         -1.00368175        0.003645
      1125         -1.00368235        0.003645
      1126         -1.00368244        0.003645
      1127         -1.00368333        0.003645
      1128         -1.00368392        0.003645
      1129         -1.00368539        0.003645
      1130         -1.00368567        0.003645
      1131         -1.00368569        0.003645
      1132         -1.00368594        0.003645
      1133         -1.00368639        0.003645
      1134         -1.00368645        0.003645
      1135         -1.00368664        0.003645
      1136         -1.00368701        0.003645
      1137         -1.00368708        0.003645
      1138         -1.00368737        0.003645
      1139         -1.00368795        0.003645
      1140         -1.00368870        0.003645
      1141         -1.00368879        0.003645
      1142         -1.00368902        0.003645
      1143         -1.00369022        0.003645
      1144         -1.00369112        0.003645
      1145         -1.00369174        0.003645
      1146         -1.00369187        0.003645
      1147         -1.00369275        0.003645
      1148         -1.00369288        0.003645
      1149         -1.00369380        0.003645
      1150         -1.00369487        0.003645
      1151         -1.00369622        0.003645
      1152         -1.00369663        0.003645
      1153         -1.00369675        0.003645
      1154         -1.00369726        0.003645
      1155         -1.00369763        0.003645
      1156         -1.00369799        0.003645
      1157         -1.00369871        0.003645
      1158         -1.00369876        0.003645
      1159         -1.00369905        0.003645
      1160         -1.00369924        0.003645
      1161         -1.00369943        0.003645
      1162         -1.00370018        0.003645
      1163         -1.00370048        0.003645
      1164         -1.00370078        0.003645
      1165         -1.00370111        0.003645
      1166         -1.00370174        0.003645
      1167         -1.00370179        0.003645
      1168         -1.00370215        0.003645
      1169         -1.00370256        0.003645
      1170         -1.00370288        0.003645
      1171         -1.00370307        0.003645
      1172         -1.00370341        0.003645
      1173         -1.00370414        0.003645
      1174         -1.00370459        0.003645
      1175         -1.00370501        0.003645
      1176         -1.00370525        0.003645
      1177         -1.00370542        0.003645
      1178         -1.00370548        0.003645
      1179         -1.00370559        0.003645
      1180         -1.00370662        0.003645
      1181         -1.00370819        0.003645
      1182         -1.00370834        0.003645
      1183         -1.00370868        0.003645
      1184         -1.00370874        0.003645
      1185         -1.00370884        0.003645
      1186         -1.00370957        0.003645
      1187         -1.00370959        0.003645
      1188         -1.00371043        0.003645
      1189         -1.00371058        0.003645
      1190         -1.00371116        0.003645
      1191         -1.00371142        0.003645
      1192         -1.00371167        0.003645
      1193         -1.00371213        0.003645
      1194         -1.00371334        0.003645
      1195         -1.00371353        0.003645
      1196         -1.00371373        0.003645
      1197         -1.00371422        0.003645
      1198         -1.00371462        0.003645
      1199         -1.00371464        0.003645
      1200         -1.00371501        0.003645
      1201         -1.00371559        0.003645
      1202         -1.00371613        0.003645
      1203         -1.00371694        0.003645
      1204         -1.00371696        0.003645
      1205         -1.00371735        0.003375
      1206         -1.00371756        0.003375
      1207         -1.00371812        0.003375
      1208         -1.00371829        0.003375
      1209         -1.00371834        0.003375
      1210         -1.00371862        0.003375
      1211         -1.00371864        0.003375
      1212         -1.00371871        0.003375
      1213         -1.00371878        0.003375
      1214         -1.00371952        0.003375
      1215         -1.00371960        0.003375
      1216         -1.00372006        0.003375
      1217         -1.00372042        0.003375
      1218         -1.00372043        0.003375
      1219         -1.00372046        0.003375
      1220         -1.00372072        0.003375
      1221         -1.00372104        0.003375
      1222         -1.00372153        0.003375
      1223         -1.00372193        0.003375
      1224         -1.00372287        0.003375
      1225         -1.00372302        0.003375
      1226         -1.00372328        0.003375
      1227         -1.00372378        0.003375
      1228         -1.00372595        0.003375
      1229         -1.00372612        0.003375
      1230         -1.00372616        0.003375
      1231         -1.00372635        0.003375
      1232         -1.00372758        0.003375
      1233         -1.00372839        0.003375
      1234         -1.00372866        0.003375
      1235         -1.00372986        0.003375
      1236         -1.00373004        0.003375
      1237         -1.00373034        0.003375
      1238         -1.00373211        0.003375
      1239         -1.00373234        0.003375
      1240         -1.00373237        0.003375
      1241         -1.00373295        0.003375
      1242         -1.00373402        0.003375
      1243         -1.00373478        0.003375
      1244         -1.00373562        0.003375
      1245         -1.00373572        0.003375
      1246         -1.00373596        0.003375
      1247         -1.00373739        0.003375
      1248         -1.00373803        0.003375
      1249         -1.00373804        0.003375
      1250         -1.00373804        0.003375
      1251         -1.00373842        0.003375
      1252         -1.00373919        0.003375
      1253         -1.00373938        0.003375
      1254         -1.00374032        0.003375
      1255         -1.00374059        0.003375
      1256         -1.00374067        0.003375
      1257         -1.00374174        0.003375
      1258         -1.00374204        0.003375
      1259         -1.00374214        0.003375
      1260         -1.00374250        0.003375
      1261         -1.00374290        0.003375
      1262         -1.00374332        0.003375
      1263         -1.00374362        0.003375
      1264         -1.00374397        0.003375
      1265         -1.00374418        0.003375
      1266         -1.00374484        0.003375
      1267         -1.00374622        0.003375
      1268         -1.00374629        0.003375
      1269         -1.00374651        0.003375
      1270         -1.00374711        0.003375
      1271         -1.00374726        0.003375
      1272         -1.00374740        0.003375
      1273         -1.00374794        0.003375
      1274         -1.00374846        0.003375
      1275         -1.00374976        0.003375
      1276         -1.00375089        0.003375
      1277         -1.00375090        0.003375
      1278         -1.00375118        0.003375
      1279         -1.00375126        0.003375
      1280         -1.00375130        0.003375
      1281         -1.00375169        0.003375
      1282         -1.00375187        0.003375
      1283         -1.00375227        0.003375
      1284         -1.00375251        0.003375
      1285         -1.00375287        0.003375
      1286         -1.00375346        0.003375
      1287         -1.00375365        0.003375
      1288         -1.00375457        0.003375
      1289         -1.00375478        0.003375
      1290         -1.00375487        0.003375
      1291         -1.00375500        0.003375
      1292         -1.00375505        0.003375
      1293         -1.00375566        0.003375
      1294         -1.00375578        0.003375
      1295         -1.00375646        0.003375
      1296         -1.00375674        0.003375
      1297         -1.00375756        0.003375
      1298         -1.00375767        0.003375
      1299         -1.00375779        0.003375
      1300         -1.00375817        0.003375
      1301         -1.00375865        0.003375
      1302         -1.00375899        0.003375
      1303         -1.00375952        0.003375
      1304         -1.00376025        0.003375
      1305         -1.00376043        0.003375
      1306         -1.00376058        0.003375
      1307         -1.00376096        0.003375
      1308         -1.00376141        0.003375
      1309         -1.00376162        0.003375
      1310         -1.00376296        0.003375
      1311         -1.00376368        0.003375
      1312         -1.00376463        0.003375
      1313         -1.00376465        0.003375
      1314         -1.00376504        0.003375
      1315         -1.00376530        0.003375
      1316         -1.00376530        0.003375
      1317         -1.00376615        0.003375
      1318         -1.00376631        0.003375
      1319         -1.00376694        0.003375
      1320         -1.00376782        0.003375
      1321         -1.00376821        0.003375
      1322         -1.00376856        0.003375
      1323         -1.00376923        0.003375
      1324         -1.00376947        0.003375
      1325         -1.00376997        0.003375
      1326         -1.00377049        0.003375
      1327         -1.00377140        0.003375
      1328         -1.00377191        0.003375
      1329         -1.00377220        0.003375
      1330         -1.00377261        0.003375
      1331         -1.00377347        0.003375
      1332         -1.00377376        0.003375
      1333         -1.00377379        0.003375
      1334         -1.00377408        0.003375
      1335         -1.00377415        0.003375
      1336         -1.00377458        0.003375
      1337         -1.00377523        0.003375
      1338         -1.00377529        0.003375
      1339         -1.00377616        0.003375
      1340         -1.00377656        0.003375
      1341         -1.00377730        0.003375
      1342         -1.00377770        0.003375
      1343         -1.00377827        0.003375
      1344         -1.00377835        0.003375
      1345         -1.00377880        0.003375
      1346         -1.00377969        0.003375
      1347         -1.00377996        0.003375
      1348         -1.00378026        0.003375
      1349         -1.00378041        0.003375
      1350         -1.00378065        0.003375
      1351         -1.00378105        0.003375
      1352         -1.00378161        0.003375
      1353         -1.00378219        0.003375
      1354         -1.00378219        0.003375
      1355         -1.00378286        0.003375
      1356         -1.00378379        0.003375
      1357         -1.00378409        0.003375
      1358         -1.00378484        0.003375
      1359         -1.00378504        0.003375
      1360         -1.00378548        0.003375
      1361         -1.00378649        0.003375
      1362         -1.00378727        0.003375
      1363         -1.00378811        0.003375
      1364         -1.00378827        0.003375
      1365         -1.00378891        0.003375
      1366         -1.00378913        0.003375
      1367         -1.00378963        0.003375
      1368         -1.00378982        0.003375
      1369         -1.00378988        0.003375
      1370         -1.00378991        0.003375
      1371         -1.00379072        0.003375
      1372         -1.00379141        0.003375
      1373         -1.00379144        0.003375
      1374         -1.00379191        0.003375
      1375         -1.00379212        0.003375
      1376         -1.00379303        0.003375
      1377         -1.00379311        0.003375
      1378         -1.00379356        0.003375
      1379         -1.00379370        0.003375
      1380         -1.00379396        0.003375
      1381         -1.00379491        0.003375
      1382         -1.00379520        0.003375
      1383         -1.00379561        0.003375
      1384         -1.00379597        0.003375
      1385         -1.00379737        0.003375
      1386         -1.00379737        0.003375
      1387         -1.00379851        0.003375
      1388         -1.00379873        0.003375
      1389         -1.00379932        0.003375
      1390         -1.00379990        0.003375
      1391         -1.00379999        0.003375
      1392         -1.00380007        0.003375
      1393         -1.00380059        0.003375
      1394         -1.00380069        0.003375
      1395         -1.00380159        0.003375
      1396         -1.00380238        0.003375
      1397         -1.00380277        0.003375
      1398         -1.00380331        0.003375
      1399         -1.00380368        0.003375
      1400         -1.00380463        0.003375
      1401         -1.00380532        0.003375
      1402         -1.00380584        0.003375
      1403         -1.00380664        0.003375
      1404         -1.00380682        0.003375
      1405         -1.00380722        0.003375
      1406         -1.00380731        0.003375
      1407         -1.00380775        0.003375
      1408         -1.00380798        0.003375
      1409         -1.00380848        0.003375
      1410         -1.00380867        0.003375
      1411         -1.00380867        0.003375
      1412         -1.00380901        0.003375
      1413         -1.00380914        0.003375
      1414         -1.00380984        0.003375
      1415         -1.00380999        0.003375
      1416         -1.00381013        0.003375
      1417         -1.00381050        0.003375
      1418         -1.00381060        0.003375
      1419         -1.00381157        0.003375
      1420         -1.00381163        0.003375
      1421         -1.00381192        0.003375
      1422         -1.00381242        0.003375
      1423         -1.00381283        0.003375
      1424         -1.00381324        0.003375
      1425         -1.00381364        0.003375
      1426         -1.00381400        0.003375
      1427         -1.00381416        0.003375
      1428         -1.00381456        0.003375
      1429         -1.00381483        0.003375
      1430         -1.00381586        0.003375
      1431         -1.00381591        0.003375
      1432         -1.00381659        0.003375
      1433         -1.00381747        0.003375
      1434         -1.00381780        0.003375
      1435         -1.00381864        0.003375
      1436         -1.00381880        0.003375
      1437         -1.00381919        0.003375
      1438         -1.00381987        0.003375
      1439         -1.00381991        0.003375
      1440         -1.00381998        0.003375
      1441         -1.00382026        0.003375
      1442         -1.00382056        0.003375
      1443         -1.00382095        0.003375
      1444         -1.00382269        0.003375
      1445         -1.00382282        0.003375
      1446         -1.00382307        0.003375
      1447         -1.00382316        0.003375
      1448         -1.00382345        0.003375
      1449         -1.00382381        0.003375
      1450         -1.00382404        0.003375
      1451         -1.00382453        0.003375
      1452         -1.00382514        0.003375
      1453         -1.00382538        0.003375
      1454         -1.00382580        0.003375
      1455         -1.00382601        0.003375
      1456         -1.00382630        0.003375
      1457         -1.00382643        0.003375
      1458         -1.00382646        0.003375
      1459         -1.00382687        0.003375
      1460         -1.00382688        0.003375
      1461         -1.00382697        0.003375
      1462         -1.00382737        0.003375
      1463         -1.00382774        0.003375
      1464         -1.00382810        0.003375
      1465         -1.00382821        0.003375
      1466         -1.00382850        0.003375
      1467         -1.00382902        0.003375
      1468         -1.00382920        0.003375
      1469         -1.00383040        0.003375
      1470         -1.00383067        0.003375
      1471         -1.00383121        0.003375
      1472         -1.00383201        0.003375
      1473         -1.00383217        0.003375
      1474         -1.00383271        0.003375
      1475         -1.00383304        0.003375
      1476         -1.00383305        0.003375
      1477         -1.00383331        0.003375
      1478         -1.00383347        0.003375
      1479         -1.00383391        0.003375
      1480         -1.00383501        0.003375
      1481         -1.00383567        0.003375
      1482         -1.00383634        0.003375
      1483         -1.00383753        0.003375
      1484         -1.00383772        0.003375
      1485         -1.00383804        0.003375
      1486         -1.00383875        0.003375
      1487         -1.00383878        0.003375
      1488         -1.00383899        0.003375
      1489         -1.00383935        0.003375
      1490         -1.00383944        0.003375
      1491         -1.00383945        0.003375
      1492         -1.00383968        0.003375
      1493         -1.00384040        0.003375
      1494         -1.00384114        0.003375
      1495         -1.00384169        0.003375
      1496         -1.00384192        0.003375
      1497         -1.00384256        0.003375
      1498         -1.00384343        0.003375
      1499         -1.00384346        0.003375
      1500         -1.00384368        0.003375
      1501         -1.00384379        0.003375
      1502         -1.00384397        0.003375
      1503         -1.00384420        0.003375
      1504         -1.00384435        0.003375
      1505         -1.00384491        0.003375
      1506         -1.00384576        0.003375
      1507         -1.00384644        0.003375
      1508         -1.00384713        0.003375
      1509         -1.00384752        0.003375
      1510         -1.00384770        0.003375
      1511         -1.00384783        0.003375
      1512         -1.00384820        0.003375
      1513         -1.00384880        0.003375
      1514         -1.00384938        0.003375
      1515         -1.00385019        0.003375
      1516         -1.00385038        0.003375
      1517         -1.00385082        0.003375
      1518         -1.00385107        0.003375
      1519         -1.00385180        0.003375
      1520         -1.00385185        0.003375
      1521         -1.00385273        0.003375
      1522         -1.00385335        0.003375
      1523         -1.00385338        0.003375
      1524         -1.00385344        0.003375
      1525         -1.00385363        0.003375
      1526         -1.00385406        0.003375
      1527         -1.00385417        0.003375
      1528         -1.00385427        0.003375
      1529         -1.00385509        0.003375
      1530         -1.00385544        0.003375
      1531         -1.00385621        0.003375
      1532         -1.00385659        0.003375
      1533         -1.00385659        0.003375
      1534         -1.00385684        0.003375
      1535         -1.00385706        0.003375
      1536         -1.00385799        0.003375
      1537         -1.00385799        0.003375
      1538         -1.00385800        0.003375
      1539         -1.00385892        0.003375
      1540         -1.00385925        0.003375
      1541         -1.00386066        0.003375
      1542         -1.00386198        0.003375
      1543         -1.00386202        0.003375
      1544         -1.00386214        0.003375
      1545         -1.00386261        0.003375
      1546         -1.00386285        0.003375
      1547         -1.00386312        0.003375
      1548         -1.00386361        0.003375
      1549         -1.00386408        0.003375
      1550         -1.00386511        0.003375
      1551         -1.00386513        0.003375
[...]
   9       0.00000     0.00000     0.00000    -0.00000     0.00000     0.00000
  10      -0.00000     0.00000     0.00000     0.00000    -0.00000     0.00000

            7           8           9          10  
       ----------- ----------- ----------- -----------
   1       0.00000    -0.00000     0.00000    -0.00000
   2       0.00000     0.00000     0.00000     0.00000
   3       0.00000     0.00000     0.00000     0.00000
   4      -0.00000    -0.00000     0.00000     0.00000
   5      -0.00000     0.00000     0.00000     0.00000
   6       0.00000     0.00000     0.00000     0.00000
   7       0.00000    -0.00000     0.00000    -0.00000
   8      -0.00000     0.00000     0.00000     0.00000
   9       0.00000     0.00000     0.00000     0.00000
  10      -0.00000     0.00000     0.00000     0.00000

                  WFN1 Final alpha Correlation Function Analysis
                  ----------------------------------------------


 global array: Ca[1:10,1:10],  handle: -981 

                     1                       2                       3                       4                       5                       6  
       ----------------------- ----------------------- ----------------------- ----------------------- ----------------------- -----------------------
   1       0.67461,   -0.71784    -0.09987,    0.12534     0.00459,   -0.02224     0.03389,    0.01450     0.00348,    0.01226    -0.03230,    0.00693
   2       0.00846,   -0.15966    -0.00944,   -0.98166     0.05665,   -0.01652     0.00111,    0.02596     0.00521,    0.00180    -0.03704,   -0.01826
   3      -0.03190,    0.00222    -0.02286,    0.04099     0.63758,    0.47168     0.48221,    0.35507    -0.01233,   -0.00820    -0.01347,   -0.04836
   4      -0.02919,   -0.00107     0.03032,    0.04098     0.17931,   -0.56880    -0.24385,    0.75945     0.00540,   -0.01321    -0.02899,    0.00736
   5      -0.01974,   -0.01137    -0.01987,    0.00432    -0.01484,   -0.02482    -0.00073,    0.01258    -0.29074,    0.83445     0.14851,   -0.43792
   6      -0.00740,    0.01819    -0.00717,    0.00032    -0.02980,    0.02436    -0.01736,   -0.00340    -0.29893,    0.07410    -0.49415,    0.15174
   7       0.01844,   -0.00011    -0.02572,   -0.03928     0.02479,   -0.01777    -0.01556,   -0.00559     0.27332,    0.07781     0.54130,    0.12888
   8      -0.00853,    0.01549     0.00938,   -0.00395    -0.01273,   -0.03128    -0.00720,    0.02800     0.02574,    0.14507    -0.00226,    0.32213
   9      -0.01725,   -0.00833    -0.01547,   -0.00539    -0.00349,   -0.07853     0.01823,   -0.03118     0.09082,   -0.11302     0.20875,   -0.22006
  10       0.00417,    0.01502    -0.01391,    0.05037    -0.02490,   -0.01236     0.01128,   -0.01118    -0.00030,    0.01434     0.03501,    0.07831

                     7                       8                       9                      10  
       ----------------------- ----------------------- ----------------------- -----------------------
   1      -0.00800,   -0.02264     0.00410,   -0.00357     0.00418,    0.01018    -0.00419,    0.00711
   2       0.01355,    0.02395     0.00282,    0.00520     0.01462,    0.01736     0.04750,    0.03519
   3      -0.03076,   -0.04035    -0.00374,   -0.01788     0.00257,    0.05012     0.02108,    0.02409
   4      -0.01217,    0.00528     0.00338,   -0.03807     0.01758,   -0.02816     0.02773,   -0.00599
   5       0.00124,   -0.02454     0.01898,    0.03743     0.01418,   -0.01451    -0.00894,    0.02326
   6      -0.59541,    0.15680     0.32141,   -0.09260    -0.37437,    0.06289     0.00837,   -0.02362
   7      -0.56765,   -0.16520    -0.36002,   -0.05022    -0.34293,   -0.08014     0.00292,   -0.01367
   8      -0.05819,   -0.36104     0.09738,    0.61186     0.11302,    0.58334    -0.03652,   -0.01175
   9       0.21771,   -0.28426     0.41235,   -0.42940    -0.40633,    0.44593    -0.11185,    0.14057
  10       0.03611,    0.05874     0.04313,    0.11056    -0.07948,   -0.06213     0.58893,    0.78268

                   WFN1 Final beta Correlation Function Analysis
                   ---------------------------------------------


 global array: Cb[1:10,1:10],  handle: -980 

                     1                       2                       3                       4                       5                       6  
       ----------------------- ----------------------- ----------------------- ----------------------- ----------------------- -----------------------
   1       0.67461,   -0.71784    -0.09987,    0.12534     0.00459,   -0.02224     0.03389,    0.01450     0.00348,    0.01226    -0.03230,    0.00693
   2       0.00846,   -0.15966    -0.00944,   -0.98166     0.05665,   -0.01652     0.00111,    0.02596     0.00521,    0.00180    -0.03704,   -0.01826
   3      -0.03190,    0.00222    -0.02286,    0.04099     0.63758,    0.47168     0.48221,    0.35507    -0.01233,   -0.00820    -0.01347,   -0.04836
   4      -0.02919,   -0.00107     0.03032,    0.04098     0.17931,   -0.56880    -0.24385,    0.75945     0.00540,   -0.01321    -0.02899,    0.00736
   5      -0.01974,   -0.01137    -0.01987,    0.00432    -0.01484,   -0.02482    -0.00073,    0.01258    -0.29074,    0.83445     0.14851,   -0.43792
   6      -0.00740,    0.01819    -0.00717,    0.00032    -0.02980,    0.02436    -0.01736,   -0.00340    -0.29893,    0.07410    -0.49415,    0.15174
   7       0.01844,   -0.00011    -0.02572,   -0.03928     0.02479,   -0.01777    -0.01556,   -0.00559     0.27332,    0.07781     0.54130,    0.12888
   8      -0.00853,    0.01549     0.00938,   -0.00395    -0.01273,   -0.03128    -0.00720,    0.02800     0.02574,    0.14507    -0.00226,    0.32213
   9      -0.01725,   -0.00833    -0.01547,   -0.00539    -0.00349,   -0.07853     0.01823,   -0.03118     0.09082,   -0.11302     0.20875,   -0.22006
  10       0.00417,    0.01502    -0.01391,    0.05037    -0.02490,   -0.01236     0.01128,   -0.01118    -0.00030,    0.01434     0.03501,    0.07831

                     7                       8                       9                      10  
       ----------------------- ----------------------- ----------------------- -----------------------
   1      -0.00800,   -0.02264     0.00410,   -0.00357     0.00418,    0.01018    -0.00419,    0.00711
   2       0.01355,    0.02395     0.00282,    0.00520     0.01462,    0.01736     0.04750,    0.03519
   3      -0.03076,   -0.04035    -0.00374,   -0.01788     0.00257,    0.05012     0.02108,    0.02409
   4      -0.01217,    0.00528     0.00338,   -0.03807     0.01758,   -0.02816     0.02773,   -0.00599
   5       0.00124,   -0.02454     0.01898,    0.03743     0.01418,   -0.01451    -0.00894,    0.02326
   6      -0.59541,    0.15680     0.32141,   -0.09260    -0.37437,    0.06289     0.00837,   -0.02362
   7      -0.56765,   -0.16520    -0.36002,   -0.05022    -0.34293,   -0.08014     0.00292,   -0.01367
   8      -0.05819,   -0.36104     0.09738,    0.61186     0.11302,    0.58334    -0.03652,   -0.01175
   9       0.21771,   -0.28426     0.41235,   -0.42940    -0.40633,    0.44593    -0.11185,    0.14057
  10       0.03611,    0.05874     0.04313,    0.11056    -0.07948,   -0.06213     0.58893,    0.78268

                     WFN1 Final Alpha Natural Orbital Analysis
                     -----------------------------------------

 Vector    1  Occ=9.703947D-01  E= 0.000000D+00
              MO Center=  1.4D-05,  1.7D-05, -2.6D-04, r^2= 1.3D+00
   Bfn.  Coefficient  Atom+Function         Bfn.  Coefficient  Atom+Function  
  ----- ------------  ---------------      ----- ------------  ---------------
     2      0.417670  1 H  s                  7      0.417302  2 H  s          
     1      0.238597  1 H  s                  6      0.238636  2 H  s          

 Vector    2  Occ=2.556207D-02  E= 0.000000D+00
              MO Center=  1.5D-04, -1.9D-04, -4.7D-04, r^2= 1.6D+00
   Bfn.  Coefficient  Atom+Function         Bfn.  Coefficient  Atom+Function  
  ----- ------------  ---------------      ----- ------------  ---------------
     2      0.624396  1 H  s                  7     -0.625284  2 H  s          
     1      0.348291  1 H  s                  6     -0.347172  2 H  s          

 Vector    3  Occ=1.022602D-03  E= 0.000000D+00
              MO Center=  1.8D-03, -8.6D-04, -4.2D-03, r^2= 2.1D+00
   Bfn.  Coefficient  Atom+Function         Bfn.  Coefficient  Atom+Function  
  ----- ------------  ---------------      ----- ------------  ---------------
     2     -1.069907  1 H  s                  7      1.062783  2 H  s          
     1      0.849169  1 H  s                  6     -0.836993  2 H  s          
    10      0.174677  2 H  pz                 5      0.157191  1 H  pz         

 Vector    4  Occ=8.533514D-04  E= 0.000000D+00
              MO Center=  1.4D-03,  1.1D-03,  1.6D-03, r^2= 1.5D+00
   Bfn.  Coefficient  Atom+Function         Bfn.  Coefficient  Atom+Function  
  ----- ------------  ---------------      ----- ------------  ---------------
     6     -0.839438  2 H  s                  1     -0.834996  1 H  s          
     7      0.649354  2 H  s                  2      0.641514  1 H  s          
     5     -0.317610  1 H  pz                10      0.307885  2 H  pz         

 Vector    5  Occ=5.191786D-04  E= 0.000000D+00
              MO Center=  8.6D-04, -2.1D-04,  3.8D-04, r^2= 1.1D+00
   Bfn.  Coefficient  Atom+Function         Bfn.  Coefficient  Atom+Function  
  ----- ------------  ---------------      ----- ------------  ---------------
     5     -0.611350  1 H  pz                10      0.602639  2 H  pz         
     6      0.425036  2 H  s                  1      0.401702  1 H  s          
     7     -0.256530  2 H  s                  2     -0.230150  1 H  s          

 Vector    6  Occ=3.856734D-04  E= 0.000000D+00
              MO Center=  2.7D-06, -8.9D-04, -5.0D-03, r^2= 9.0D-01
   Bfn.  Coefficient  Atom+Function         Bfn.  Coefficient  Atom+Function  
  ----- ------------  ---------------      ----- ------------  ---------------
     4      0.705198  1 H  py                 9      0.700572  2 H  py         
     5     -0.032932  1 H  pz         

 Vector    7  Occ=3.400093D-04  E= 0.000000D+00
              MO Center= -2.3D-03, -6.7D-05, -9.7D-05, r^2= 9.0D-01
   Bfn.  Coefficient  Atom+Function         Bfn.  Coefficient  Atom+Function  
  ----- ------------  ---------------      ----- ------------  ---------------
     3     -0.702899  1 H  px                 8     -0.703169  2 H  px         

 Vector    8  Occ=3.127816D-04  E= 0.000000D+00
              MO Center= -1.9D-03, -3.7D-05,  1.5D-04, r^2= 9.1D-01
   Bfn.  Coefficient  Atom+Function         Bfn.  Coefficient  Atom+Function  
  ----- ------------  ---------------      ----- ------------  ---------------
     3     -0.710398  1 H  px                 8      0.710423  2 H  px         

 Vector    9  Occ=3.668077D-04  E= 0.000000D+00
              MO Center= -2.4D-06,  1.1D-03,  5.0D-03, r^2= 9.1D-01
   Bfn.  Coefficient  Atom+Function         Bfn.  Coefficient  Atom+Function  
  ----- ------------  ---------------      ----- ------------  ---------------
     9     -0.712933  2 H  py                 4      0.708165  1 H  py         

 Vector   10  Occ=2.428532D-04  E= 0.000000D+00
              MO Center= -4.3D-05, -2.8D-06,  2.9D-03, r^2= 1.2D+00
   Bfn.  Coefficient  Atom+Function         Bfn.  Coefficient  Atom+Function  
  ----- ------------  ---------------      ----- ------------  ---------------
    10      0.739877  2 H  pz                 5      0.732110  1 H  pz         
     2      0.535523  1 H  s                  7     -0.527276  2 H  s          
     1     -0.267355  1 H  s                  6      0.257104  2 H  s          
     4      0.026420  1 H  py                 9      0.025777  2 H  py         


                     WFN1 Final Beta Natural Orbital Analysis
                     ----------------------------------------

 Vector    1  Occ=9.703947D-01  E= 0.000000D+00
              MO Center=  1.4D-05,  1.7D-05, -2.6D-04, r^2= 1.3D+00
   Bfn.  Coefficient  Atom+Function         Bfn.  Coefficient  Atom+Function  
  ----- ------------  ---------------      ----- ------------  ---------------
     2      0.417670  1 H  s                  7      0.417302  2 H  s          
     1      0.238597  1 H  s                  6      0.238636  2 H  s          

 Vector    2  Occ=2.556207D-02  E= 0.000000D+00
              MO Center=  1.5D-04, -1.9D-04, -4.7D-04, r^2= 1.6D+00
   Bfn.  Coefficient  Atom+Function         Bfn.  Coefficient  Atom+Function  
  ----- ------------  ---------------      ----- ------------  ---------------
     2      0.624396  1 H  s                  7     -0.625284  2 H  s          
     1      0.348291  1 H  s                  6     -0.347172  2 H  s          

 Vector    3  Occ=1.022602D-03  E= 0.000000D+00
              MO Center=  1.8D-03, -8.6D-04, -4.2D-03, r^2= 2.1D+00
   Bfn.  Coefficient  Atom+Function         Bfn.  Coefficient  Atom+Function  
  ----- ------------  ---------------      ----- ------------  ---------------
     2     -1.069907  1 H  s                  7      1.062783  2 H  s          
     1      0.849169  1 H  s                  6     -0.836993  2 H  s          
    10      0.174677  2 H  pz                 5      0.157191  1 H  pz         

 Vector    4  Occ=8.533514D-04  E= 0.000000D+00
              MO Center=  1.4D-03,  1.1D-03,  1.6D-03, r^2= 1.5D+00
   Bfn.  Coefficient  Atom+Function         Bfn.  Coefficient  Atom+Function  
  ----- ------------  ---------------      ----- ------------  ---------------
     6     -0.839438  2 H  s                  1     -0.834996  1 H  s          
     7      0.649354  2 H  s                  2      0.641514  1 H  s          
     5     -0.317610  1 H  pz                10      0.307885  2 H  pz         

 Vector    5  Occ=5.191786D-04  E= 0.000000D+00
              MO Center=  8.6D-04, -2.1D-04,  3.8D-04, r^2= 1.1D+00
   Bfn.  Coefficient  Atom+Function         Bfn.  Coefficient  Atom+Function  
  ----- ------------  ---------------      ----- ------------  ---------------
     5     -0.611350  1 H  pz                10      0.602639  2 H  pz         
     6      0.425036  2 H  s                  1      0.401702  1 H  s          
     7     -0.256530  2 H  s                  2     -0.230150  1 H  s          

 Vector    6  Occ=3.856734D-04  E= 0.000000D+00
              MO Center=  2.7D-06, -8.9D-04, -5.0D-03, r^2= 9.0D-01
   Bfn.  Coefficient  Atom+Function         Bfn.  Coefficient  Atom+Function  
  ----- ------------  ---------------      ----- ------------  ---------------
     4      0.705198  1 H  py                 9      0.700572  2 H  py         
     5     -0.032932  1 H  pz         

 Vector    7  Occ=3.400093D-04  E= 0.000000D+00
              MO Center= -2.3D-03, -6.7D-05, -9.7D-05, r^2= 9.0D-01
   Bfn.  Coefficient  Atom+Function         Bfn.  Coefficient  Atom+Function  
  ----- ------------  ---------------      ----- ------------  ---------------
     3     -0.702899  1 H  px                 8     -0.703169  2 H  px         

 Vector    8  Occ=3.127816D-04  E= 0.000000D+00
              MO Center= -1.9D-03, -3.7D-05,  1.5D-04, r^2= 9.1D-01
   Bfn.  Coefficient  Atom+Function         Bfn.  Coefficient  Atom+Function  
  ----- ------------  ---------------      ----- ------------  ---------------
     3     -0.710398  1 H  px                 8      0.710423  2 H  px         

 Vector    9  Occ=3.668077D-04  E= 0.000000D+00
              MO Center= -2.4D-06,  1.1D-03,  5.0D-03, r^2= 9.1D-01
   Bfn.  Coefficient  Atom+Function         Bfn.  Coefficient  Atom+Function  
  ----- ------------  ---------------      ----- ------------  ---------------
     9     -0.712933  2 H  py                 4      0.708165  1 H  py         

 Vector   10  Occ=2.428532D-04  E= 0.000000D+00
              MO Center= -4.3D-05, -2.8D-06,  2.9D-03, r^2= 1.2D+00
   Bfn.  Coefficient  Atom+Function         Bfn.  Coefficient  Atom+Function  
  ----- ------------  ---------------      ----- ------------  ---------------
    10      0.739877  2 H  pz                 5      0.732110  1 H  pz         
     2      0.535523  1 H  s                  7     -0.527276  2 H  s          
     1     -0.267355  1 H  s                  6      0.257104  2 H  s          
     4      0.026420  1 H  py                 9      0.025777  2 H  py         


 Task  times  cpu:     3544.6s     wall:     4734.9s
 Summary of allocated global arrays
-----------------------------------
  No active global arrays



                         GA Statistics for process    0
                         ------------------------------

       create   destroy   get      put      acc     scatter   gather  read&inc
calls:   44       44     9.59e+08 4.12e+05 5.47e+05    0        0       11     
number of processes/call 1.00e+00 1.00e+00 1.00e+00 0.00e+00 0.00e+00
bytes total:             7.68e+11 4.37e+08 5.47e+08 0.00e+00 0.00e+00 8.80e+01
bytes remote:            0.00e+00 0.00e+00 0.00e+00 0.00e+00 0.00e+00 0.00e+00
Max memory consumed for GA by this process: 268000 bytes
MA_summarize_allocated_blocks: starting scan ...
MA_summarize_allocated_blocks: scan completed: 0 heap blocks, 0 stack blocks
MA usage statistics:

	allocation statistics:
					      heap	     stack
					      ----	     -----
	current number of blocks	         0	         0
	maximum number of blocks	        19	        17
	current total bytes		         0	         0
	maximum total bytes		   3205432	  22508664
	maximum total K-bytes		      3206	     22509
	maximum total M-bytes		         4	        23


                                NWChem Input Module
                                -------------------





                                     CITATION
                                     --------
                Please cite the following reference when publishing
                           results obtained with NWChem:

                 M. Valiev, E.J. Bylaska, N. Govind, K. Kowalski,
              T.P. Straatsma, H.J.J. van Dam, D. Wang, J. Nieplocha,
                        E. Apra, T.L. Windus, W.A. de Jong
                 "NWChem: a comprehensive and scalable open-source
                  solution for large scale molecular simulations"
                      Comput. Phys. Commun. 181, 1477 (2010)
                           doi:10.1016/j.cpc.2010.04.018

                                      AUTHORS
                                      -------
          E. Apra, E. J. Bylaska, W. A. de Jong, N. Govind, K. Kowalski,
       T. P. Straatsma, M. Valiev, H. J. J. van Dam, D. Wang, T. L. Windus,
        J. Hammond, J. Autschbach, K. Bhaskaran-Nair, J. Brabec, K. Lopata,
    S. A. Fischer, S. Krishnamoorthy, M. Jacquelin, W. Ma, M. Klemm, O. Villa,
      Y. Chen, V. Anisimov, F. Aquino, S. Hirata, M. T. Hackler, V. Konjkov,
      T. Risthaus, M. Malagoli, A. Marenich, A. Otero-de-la-Roza, J. Mullin,
        P. Nichols, R. Peverati, J. Pittner, Y. Zhao, P.-D. Fan, A. Fonari,
       M. Williamson, R. J. Harrison, J. R. Rehr, M. Dupuis, D. Silverstein,
    D. M. A. Smith, J. Nieplocha, V. Tipparaju, M. Krishnan, B. E. Van Kuiken,
        A. Vazquez-Mayagoitia, L. Jensen, M. Swart, Q. Wu, T. Van Voorhis,
     A. A. Auer, M. Nooijen, L. D. Crosby, E. Brown, G. Cisneros, G. I. Fann,
   H. Fruchtl, J. Garza, K. Hirao, R. A. Kendall, J. A. Nichols, K. Tsemekhman,
    K. Wolinski, J. Anchell, D. E. Bernholdt, P. Borowski, T. Clark, D. Clerc,
   H. Dachsel, M. J. O. Deegan, K. Dyall, D. Elwood, E. Glendening, M. Gutowski,
   A. C. Hess, J. Jaffe, B. G. Johnson, J. Ju, R. Kobayashi, R. Kutteh, Z. Lin,
   R. Littlefield, X. Long, B. Meng, T. Nakajima, S. Niu, L. Pollack, M. Rosing,
   K. Glaesemann, G. Sandrone, M. Stave, H. Taylor, G. Thomas, J. H. van Lenthe,
                               A. T. Wong, Z. Zhang.

 Total times  cpu:     3544.6s     wall:     4734.9s
