 argument  1 = input-wf.nw



============================== echo of input deck ==============================
echo
start wfn1_dat
geometry units au noautoz
  H 0 0 -1.64434600000000000000
  H 0 0  1.64434600000000000000
  symmetry cs
end
basis
  H library 6-31g**
end
set wfn1:input_vectors "atomic"
set wfn1:solver "monte-carlo"
set wfn1:print_error F
set wfn1:t_initial 0.1
#set wfn1:corr_expr "wfn1_mx"
set wfn1:corr_expr "wfn1c"
set wfn1:t_bath 0.0
set wfn1:maxit  20000
task wfn1 energy
================================================================================


                                         
                                         


              Northwest Computational Chemistry Package (NWChem) 6.8
              ------------------------------------------------------


                    Environmental Molecular Sciences Laboratory
                       Pacific Northwest National Laboratory
                                Richland, WA 99352

                              Copyright (c) 1994-2015
                       Pacific Northwest National Laboratory
                            Battelle Memorial Institute

             NWChem is an open-source computational chemistry package
                        distributed under the terms of the
                      Educational Community License (ECL) 2.0
             A copy of the license is included with this distribution
                              in the LICENSE.TXT file

                                  ACKNOWLEDGMENT
                                  --------------

            This software and its documentation were developed at the
            EMSL at Pacific Northwest National Laboratory, a multiprogram
            national laboratory, operated for the U.S. Department of Energy
            by Battelle under Contract Number DE-AC05-76RL01830. Support
            for this work was provided by the Department of Energy Office
            of Biological and Environmental Research, Office of Basic
            Energy Sciences, and the Office of Advanced Scientific Computing.


           Job information
           ---------------

    hostname        = erato
    program         = ../../../bin/LINUX64/nwchem
    date            = Mon Mar  1 15:33:42 2021

    compiled        = Sun_Feb_28_18:02:42_2021
    source          = /home/hvandam/nwchem-1-wfn1
    nwchem branch   = Development
    nwchem revision = nwchem_on_git-124-gad72d19fff205e319ffbbf2bca37a04ded6ad57b
    ga revision     = nwchem_on_git-124-gad72d19
    use scalapack   = F
    input           = input-wf.nw
    prefix          = wfn1_dat.
    data base       = ./wfn1_dat.db
    status          = startup
    nproc           =        1
    time left       =     -1s



           Memory information
           ------------------

    heap     =   13107198 doubles =    100.0 Mbytes
    stack    =   13107195 doubles =    100.0 Mbytes
    global   =   26214400 doubles =    200.0 Mbytes (distinct from heap & stack)
    total    =   52428793 doubles =    400.0 Mbytes
    verify   = yes
    hardfail = no 


           Directory information
           ---------------------

  0 permanent = .
  0 scratch   = .




                                NWChem Input Module
                                -------------------


 Turning off AUTOSYM since
 SYMMETRY directive was detected!



                             Geometry "geometry" -> ""
                             -------------------------

 Output coordinates in a.u. (scale by  1.000000000 to convert to a.u.)

  No.       Tag          Charge          X              Y              Z
 ---- ---------------- ---------- -------------- -------------- --------------
    1 H                    1.0000     0.00000000     0.00000000    -1.64434600
    2 H                    1.0000     0.00000000     0.00000000     1.64434600

      Atomic Mass 
      ----------- 

      H                  1.007825


 Effective nuclear repulsion energy (a.u.)       0.3040722573

            Nuclear Dipole moment (a.u.) 
            ----------------------------
        X                 Y               Z
 ---------------- ---------------- ----------------
     0.0000000000     0.0000000000     0.0000000000

      Symmetry information
      --------------------

 Group name             Cs        
 Group number              2
 Group order               2
 No. of unique centers     1

      Symmetry unique atoms

     1


            XYZ format geometry
            -------------------
     2
 geometry
 H                     0.00000000     0.00000000    -0.87015049
 H                     0.00000000     0.00000000     0.87015049

                      Basis "ao basis" -> "" (cartesian)
                      -----
  H (Hydrogen)
  ------------
            Exponent  Coefficients 
       -------------- ---------------------------------------------------------
  1 S  1.87311370E+01  0.033495
  1 S  2.82539370E+00  0.234727
  1 S  6.40121700E-01  0.813757

  2 S  1.61277800E-01  1.000000

  3 P  1.10000000E+00  1.000000



 Summary of "ao basis" -> "" (cartesian)
 ------------------------------------------------------------------------------
       Tag                 Description            Shells   Functions and Types
 ---------------- ------------------------------  ------  ---------------------
 H                          6-31g**                  3        5   2s1p



                                NWChem WFN1 Module
                                ------------------



          No. of electrons :     2
           Alpha electrons :     1
            Beta electrons :     1
          Charge           :     0
          Spin multiplicity:     1

 HvD: wfn1_inpdft
 HvD: nquad_task =                     1
 HvD: iangquad   =                     0
 HvD: gridtype   = user      
 HvD: leb        =  T
 HvD: radgrid    = murakn    
 HvD: trunc_neigh=  T
 HvD: lssw       =  T
 HvD: whichssw   = erf1    
 HvD: mxnrad     =                     0
 HvD: mxnang     =                     0
 HVD: wfn1: movecs_in  = atomic                                                                                                                                                                                                                                                          
 HVD: wfn1: movecs_out = ./wfn1_dat.movecs                                                                                                                                                                                                                                               

      Superposition of Atomic Density Guess
      -------------------------------------

 Sum of atomic energies:          -0.99646508

      Non-variational initial energy
      ------------------------------

 Total energy =      -0.706264
 1-e energy   =      -1.602381
 2-e energy   =       0.592045
 HOMO         =      -0.298990
 LUMO         =      -0.070597

 iteration              energy           error
 ---------              ------           -----
         0         -0.94686352        0.200000
         1         -0.95183175        0.200000
         2         -0.95338374        0.200000
         3         -0.95359518        0.200000
         4         -0.95458435        0.200000
         5         -0.95595978        0.200000
         6         -0.95847743        0.200000
         7         -0.95869118        0.200000
         8         -0.96001145        0.200000
         9         -0.96012887        0.200000
        10         -0.96204133        0.200000
        11         -0.96338194        0.200000
        12         -0.96370713        0.200000
        13         -0.96443877        0.200000
        14         -0.96448907        0.200000
        15         -0.96468293        0.200000
        16         -0.96526689        0.200000
        17         -0.96557863        0.200000
        18         -0.96562671        0.171449
        19         -0.96617599        0.146973
        20         -0.96623590        0.146973
        21         -0.96636094        0.146973
        22         -0.96693250        0.146973
        23         -0.96696837        0.136079
        24         -0.96712129        0.136079
        25         -0.96726906        0.116653
        26         -0.96729175        0.092587
        27         -0.96737786        0.092587
        28         -0.96742740        0.092587
        29         -0.96770320        0.092587
        30         -0.96771583        0.085724
        31         -0.96773890        0.079370
        32         -0.96787264        0.079370
        33         -0.96791351        0.079370
        34         -0.96792448        0.073487
        35         -0.96796588        0.073487
        36         -0.96797555        0.073487
        37         -0.96812064        0.073487
        38         -0.96820776        0.068040
        39         -0.96825367        0.062996
        40         -0.96825448        0.062996
        41         -0.96828534        0.058326
        42         -0.96828572        0.058326
        43         -0.96833267        0.058326
        44         -0.96836708        0.058326
        45         -0.96838178        0.058326
        46         -0.96839746        0.058326
        47         -0.96843201        0.058326
        48         -0.96845922        0.058326
        49         -0.96848228        0.058326
        50         -0.96852205        0.054003
        51         -0.96856473        0.046294
        52         -0.96857075        0.046294
        53         -0.96857151        0.046294
        54         -0.96865924        0.046294
        55         -0.96868174        0.046294
        56         -0.96870564        0.046294
        57         -0.96872221        0.039685
        58         -0.96873000        0.039685
        59         -0.96875404        0.036743
        60         -0.96877741        0.034020
        61         -0.96878709        0.031498
        62         -0.96879245        0.031498
        63         -0.96880434        0.031498
        64         -0.96882912        0.031498
        65         -0.96883827        0.031498
        66         -0.96885273        0.031498
        67         -0.96886273        0.031498
        68         -0.96888736        0.029163
        69         -0.96891964        0.029163
        70         -0.96892817        0.029163
        71         -0.96893352        0.029163
        72         -0.96893488        0.029163
        73         -0.96896801        0.029163
        74         -0.96899704        0.029163
        75         -0.96900902        0.029163
        76         -0.96901112        0.029163
        77         -0.96902223        0.027001
        78         -0.96902388        0.025000
        79         -0.96903093        0.025000
        80         -0.96904068        0.025000
        81         -0.96904206        0.025000
        82         -0.96904621        0.025000
        83         -0.96905164        0.025000
        84         -0.96907249        0.025000
        85         -0.96907266        0.025000
        86         -0.96907872        0.023147
        87         -0.96909492        0.023147
        88         -0.96909565        0.023147
        89         -0.96910154        0.023147
        90         -0.96910209        0.021431
        91         -0.96912215        0.021431
        92         -0.96912560        0.021431
        93         -0.96912903        0.021431
        94         -0.96913175        0.021431
        95         -0.96913524        0.021431
        96         -0.96913830        0.021431
        97         -0.96914421        0.021431
        98         -0.96915603        0.021431
        99         -0.96915788        0.021431
       100         -0.96916843        0.021431
       101         -0.96917618        0.021431
       102         -0.96918166        0.021431
       103         -0.96918478        0.019843
       104         -0.96918612        0.019843
       105         -0.96919131        0.015749
       106         -0.96919746        0.015749
       107         -0.96920409        0.015749
       108         -0.96920818        0.015749
       109         -0.96921070        0.014582
       110         -0.96921140        0.014582
       111         -0.96922134        0.014582
       112         -0.96922434        0.014582
       113         -0.96922506        0.014582
       114         -0.96922653        0.014582
       115         -0.96922931        0.014582
       116         -0.96922999        0.014582
       117         -0.96923063        0.014582
       118         -0.96923438        0.013501
       119         -0.96923676        0.013501
       120         -0.96923701        0.012500
       121         -0.96923745        0.012500
       122         -0.96923749        0.012500
       123         -0.96923752        0.012500
       124         -0.96924177        0.012500
       125         -0.96924493        0.012500
       126         -0.96924511        0.012500
       127         -0.96924586        0.012500
       128         -0.96924757        0.012500
       129         -0.96924887        0.012500
       130         -0.96925053        0.012500
       131         -0.96925155        0.012500
       132         -0.96925710        0.012500
       133         -0.96926136        0.011573
       134         -0.96926275        0.011573
       135         -0.96926478        0.010716
       136         -0.96926822        0.010716
       137         -0.96927108        0.010716
       138         -0.96927162        0.010716
       139         -0.96927866        0.010716
       140         -0.96927951        0.010716
       141         -0.96928405        0.010716
       142         -0.96928895        0.009921
       143         -0.96928970        0.009921
       144         -0.96929350        0.009921
       145         -0.96929588        0.009921
       146         -0.96929664        0.009921
       147         -0.96929915        0.009921
       148         -0.96930156        0.009921
       149         -0.96930193        0.009921
       150         -0.96930289        0.009921
       151         -0.96930482        0.009921
       152         -0.96930888        0.009921
       153         -0.96931253        0.009921
       154         -0.96931355        0.009921
       155         -0.96931610        0.009921
       156         -0.96931830        0.009186
       157         -0.96931883        0.009186
       158         -0.96931958        0.009186
       159         -0.96932044        0.009186
       160         -0.96932078        0.009186
       161         -0.96932108        0.009186
       162         -0.96932212        0.009186
       163         -0.96932270        0.009186
       164         -0.96932360        0.009186
       165         -0.96932784        0.009186
       166         -0.96932889        0.009186
       167         -0.96932913        0.008505
       168         -0.96933023        0.008505
       169         -0.96933028        0.008505
       170         -0.96933099        0.008505
       171         -0.96933175        0.008505
       172         -0.96933276        0.008505
       173         -0.96933380        0.008505
       174         -0.96933434        0.008505
       175         -0.96933543        0.008505
       176         -0.96933750        0.008505
       177         -0.96933983        0.008505
       178         -0.96934072        0.008505
       179         -0.96934288        0.007875
       180         -0.96934374        0.007291
       181         -0.96934542        0.007291
       182         -0.96934617        0.007291
       183         -0.96934649        0.007291
       184         -0.96934764        0.007291
       185         -0.96934830        0.007291
       186         -0.96934907        0.007291
       187         -0.96934936        0.007291
       188         -0.96935074        0.007291
       189         -0.96935216        0.007291
       190         -0.96935228        0.007291
       191         -0.96935347        0.007291
       192         -0.96935398        0.007291
       193         -0.96935440        0.007291
       194         -0.96935493        0.007291
       195         -0.96935585        0.007291
       196         -0.96935713        0.007291
       197         -0.96936129        0.007291
       198         -0.96936210        0.006750
       199         -0.96936361        0.006750
       200         -0.96936563        0.006750
       201         -0.96936634        0.006750
       202         -0.96936757        0.006250
       203         -0.96936919        0.006250
       204         -0.96936949        0.006250
       205         -0.96937006        0.006250
       206         -0.96937028        0.006250
       207         -0.96937213        0.006250
       208         -0.96937249        0.006250
       209         -0.96937352        0.006250
       210         -0.96937450        0.006250
       211         -0.96937456        0.006250
       212         -0.96937505        0.006250
       213         -0.96937564        0.006250
       214         -0.96937659        0.006250
       215         -0.96937700        0.006250
       216         -0.96937701        0.006250
       217         -0.96937856        0.006250
       218         -0.96937992        0.006250
       219         -0.96938001        0.006250
       220         -0.96938029        0.006250
       221         -0.96938039        0.006250
       222         -0.96938158        0.006250
       223         -0.96938254        0.006250
       224         -0.96938319        0.006250
       225         -0.96938420        0.006250
       226         -0.96938425        0.006250
       227         -0.96938520        0.006250
       228         -0.96938521        0.006250
       229         -0.96938710        0.006250
       230         -0.96938828        0.006250
       231         -0.96938912        0.006250
       232         -0.96938955        0.006250
       233         -0.96939098        0.006250
       234         -0.96939120        0.006250
       235         -0.96939337        0.006250
       236         -0.96939344        0.006250
       237         -0.96939427        0.006250
       238         -0.96939629        0.006250
       239         -0.96939777        0.006250
       240         -0.96939839        0.006250
       241         -0.96939872        0.006250
       242         -0.96939964        0.006250
       243         -0.96940077        0.006250
       244         -0.96940138        0.006250
       245         -0.96940245        0.006250
       246         -0.96940301        0.005787
       247         -0.96940334        0.005787
       248         -0.96940388        0.005787
       249         -0.96940453        0.005787
       250         -0.96940525        0.005787
       251         -0.96940660        0.005787
       252         -0.96940671        0.005787
       253         -0.96940716        0.005787
       254         -0.96940832        0.005787
       255         -0.96940963        0.005787
       256         -0.96941079        0.005787
       257         -0.96941147        0.005787
       258         -0.96941212        0.005787
       259         -0.96941403        0.005787
       260         -0.96941432        0.005787
       261         -0.96941478        0.005787
       262         -0.96941650        0.005787
       263         -0.96941666        0.005787
       264         -0.96941719        0.005787
       265         -0.96941746        0.005787
       266         -0.96941781        0.005787
       267         -0.96941946        0.005787
       268         -0.96942151        0.005787
       269         -0.96942152        0.005787
       270         -0.96942340        0.005787
       271         -0.96942407        0.005787
       272         -0.96942485        0.005787
       273         -0.96942556        0.005787
       274         -0.96942603        0.005787
       275         -0.96942674        0.005787
       276         -0.96942761        0.005787
       277         -0.96942809        0.005787
       278         -0.96943010        0.005787
       279         -0.96943029        0.005358
       280         -0.96943101        0.005358
       281         -0.96943127        0.005358
       282         -0.96943142        0.005358
       283         -0.96943178        0.005358
       284         -0.96943207        0.005358
       285         -0.96943271        0.005358
       286         -0.96943366        0.005358
       287         -0.96943366        0.005358
       288         -0.96943443        0.005358
       289         -0.96943638        0.005358
       290         -0.96943696        0.005358
       291         -0.96943845        0.005358
       292         -0.96943910        0.004961
       293         -0.96943977        0.004961
       294         -0.96943978        0.004961
       295         -0.96943992        0.004961
       296         -0.96944026        0.004961
       297         -0.96944034        0.004961
       298         -0.96944071        0.004961
       299         -0.96944082        0.004961
       300         -0.96944240        0.004961
       301         -0.96944363        0.004961
       302         -0.96944412        0.004961
       303         -0.96944462        0.004961
       304         -0.96944606        0.004961
       305         -0.96944614        0.004961
       306         -0.96944643        0.004961
       307         -0.96944686        0.004961
       308         -0.96944728        0.004961
       309         -0.96944779        0.004961
       310         -0.96944825        0.004961
       311         -0.96944854        0.004961
       312         -0.96944880        0.004961
       313         -0.96944970        0.004961
       314         -0.96944976        0.004961
       315         -0.96945099        0.004961
       316         -0.96945143        0.004961
       317         -0.96945157        0.004961
       318         -0.96945216        0.004961
       319         -0.96945249        0.004961
       320         -0.96945293        0.004961
       321         -0.96945330        0.004961
       322         -0.96945344        0.004961
       323         -0.96945418        0.004961
       324         -0.96945430        0.004961
       325         -0.96945497        0.004961
       326         -0.96945509        0.004961
       327         -0.96945593        0.004961
       328         -0.96945660        0.004961
       329         -0.96945756        0.004961
       330         -0.96945757        0.004961
       331         -0.96945784        0.004961
       332         -0.96945795        0.004961
       333         -0.96945836        0.004961
       334         -0.96945906        0.004961
       335         -0.96945934        0.004961
       336         -0.96945966        0.004961
       337         -0.96946015        0.004961
       338         -0.96946130        0.004961
       339         -0.96946163        0.004961
       340         -0.96946164        0.004961
       341         -0.96946280        0.004961
       342         -0.96946320        0.004961
       343         -0.96946334        0.004961
       344         -0.96946381        0.004961
       345         -0.96946405        0.004961
       346         -0.96946438        0.004961
       347         -0.96946506        0.004961
       348         -0.96946562        0.004961
       349         -0.96946576        0.004961
       350         -0.96946583        0.004961
       351         -0.96946684        0.004961
       352         -0.96946752        0.004961
       353         -0.96946802        0.004961
       354         -0.96946887        0.004961
       355         -0.96946952        0.004961
       356         -0.96946956        0.004961
       357         -0.96946988        0.004961
       358         -0.96947015        0.004961
       359         -0.96947079        0.004961
       360         -0.96947157        0.004961
       361         -0.96947169        0.004961
       362         -0.96947201        0.004961
       363         -0.96947284        0.004961
       364         -0.96947446        0.004961
       365         -0.96947569        0.004961
       366         -0.96947598        0.004252
       367         -0.96947673        0.004252
       368         -0.96947739        0.004252
       369         -0.96947822        0.004252
       370         -0.96947838        0.004252
       371         -0.96947842        0.004252
       372         -0.96947874        0.004252
       373         -0.96947887        0.004252
       374         -0.96947965        0.004252
       375         -0.96948023        0.004252
       376         -0.96948040        0.004252
       377         -0.96948064        0.004252
       378         -0.96948137        0.004252
       379         -0.96948149        0.004252
       380         -0.96948157        0.004252
       381         -0.96948254        0.004252
       382         -0.96948254        0.004252
       383         -0.96948310        0.004252
       384         -0.96948328        0.004252
       385         -0.96948365        0.004252
       386         -0.96948376        0.004252
       387         -0.96948389        0.004252
       388         -0.96948439        0.004252
       389         -0.96948481        0.004252
       390         -0.96948517        0.004252
       391         -0.96948596        0.004252
       392         -0.96948637        0.004252
       393         -0.96948730        0.004252
       394         -0.96948775        0.004252
       395         -0.96948840        0.004252
       396         -0.96948862        0.004252
       397         -0.96948908        0.003937
       398         -0.96948914        0.003937
       399         -0.96948966        0.003937
       400         -0.96949003        0.003937
       401         -0.96949015        0.003937
       402         -0.96949048        0.003937
       403         -0.96949062        0.003937
       404         -0.96949096        0.003937
       405         -0.96949174        0.003937
       406         -0.96949179        0.003937
       407         -0.96949192        0.003937
       408         -0.96949297        0.003937
       409         -0.96949304        0.003937
       410         -0.96949395        0.003937
       411         -0.96949400        0.003937
       412         -0.96949449        0.003937
       413         -0.96949470        0.003937
       414         -0.96949479        0.003937
       415         -0.96949550        0.003937
       416         -0.96949581        0.003937
       417         -0.96949652        0.003937
       418         -0.96949699        0.003937
       419         -0.96949767        0.003937
       420         -0.96949792        0.003937
       421         -0.96949807        0.003937
       422         -0.96949829        0.003937
       423         -0.96949918        0.003937
       424         -0.96949955        0.003937
       425         -0.96949997        0.003937
       426         -0.96950041        0.003937
       427         -0.96950057        0.003937
       428         -0.96950085        0.003645
       429         -0.96950119        0.003645
       430         -0.96950156        0.003645
       431         -0.96950193        0.003645
       432         -0.96950228        0.003645
       433         -0.96950298        0.003645
       434         -0.96950331        0.003645
       435         -0.96950360        0.003645
       436         -0.96950404        0.003645
       437         -0.96950415        0.003645
       438         -0.96950461        0.003645
       439         -0.96950518        0.003645
       440         -0.96950532        0.003645
       441         -0.96950604        0.003645
       442         -0.96950617        0.003645
       443         -0.96950718        0.003645
       444         -0.96950783        0.003645
       445         -0.96950792        0.003645
       446         -0.96950824        0.003645
       447         -0.96950849        0.003645
       448         -0.96950866        0.003645
       449         -0.96950934        0.003645
       450         -0.96950959        0.003645
       451         -0.96951015        0.003645
       452         -0.96951047        0.003645
       453         -0.96951117        0.003645
       454         -0.96951124        0.003645
       455         -0.96951141        0.003645
       456         -0.96951198        0.003645
       457         -0.96951215        0.003645
       458         -0.96951263        0.003645
       459         -0.96951274        0.003645
       460         -0.96951410        0.003645
       461         -0.96951411        0.003645
       462         -0.96951433        0.003645
       463         -0.96951487        0.003645
       464         -0.96951519        0.003645
       465         -0.96951579        0.003645
       466         -0.96951595        0.003645
       467         -0.96951606        0.003645
       468         -0.96951609        0.003645
       469         -0.96951628        0.003645
       470         -0.96951679        0.003645
       471         -0.96951735        0.003645
       472         -0.96951798        0.003645
       473         -0.96951845        0.003645
       474         -0.96951893        0.003645
       475         -0.96951992        0.003645
       476         -0.96952033        0.003645
       477         -0.96952035        0.003645
       478         -0.96952036        0.003645
       479         -0.96952045        0.003645
       480         -0.96952062        0.003645
       481         -0.96952068        0.003645
       482         -0.96952106        0.003645
       483         -0.96952117        0.003645
       484         -0.96952136        0.003645
       485         -0.96952159        0.003645
       486         -0.96952196        0.003645
       487         -0.96952206        0.003645
       488         -0.96952268        0.003645
       489         -0.96952316        0.003645
       490         -0.96952339        0.003645
       491         -0.96952371        0.003645
       492         -0.96952400        0.003645
       493         -0.96952428        0.003645
       494         -0.96952519        0.003645
       495         -0.96952535        0.003645
       496         -0.96952541        0.003645
       497         -0.96952604        0.003645
       498         -0.96952656        0.003645
       499         -0.96952689        0.003645
       500         -0.96952703        0.003645
       501         -0.96952738        0.003645
       502         -0.96952782        0.003645
       503         -0.96952851        0.003645
       504         -0.96952896        0.003645
       505         -0.96952957        0.003645
       506         -0.96953021        0.003645
       507         -0.96953042        0.003645
       508         -0.96953051        0.003645
       509         -0.96953135        0.003645
       510         -0.96953165        0.003645
       511         -0.96953215        0.003645
       512         -0.96953244        0.003645
       513         -0.96953246        0.003645
       514         -0.96953257        0.003645
       515         -0.96953313        0.003645
       516         -0.96953383        0.003645
       517         -0.96953415        0.003645
       518         -0.96953430        0.003645
       519         -0.96953469        0.003645
       520         -0.96953490        0.003645
       521         -0.96953571        0.003645
       522         -0.96953587        0.003645
       523         -0.96953615        0.003645
       524         -0.96953640        0.003645
       525         -0.96953679        0.003645
       526         -0.96953718        0.003645
       527         -0.96953752        0.003645
       528         -0.96953800        0.003645
       529         -0.96953824        0.003645
       530         -0.96953862        0.003645
       531         -0.96953877        0.003645
       532         -0.96953949        0.003645
       533         -0.96953975        0.003645
       534         -0.96953981        0.003645
       535         -0.96954002        0.003645
       536         -0.96954093        0.003645
       537         -0.96954101        0.003645
       538         -0.96954112        0.003645
       539         -0.96954198        0.003645
       540         -0.96954318        0.003645
       541         -0.96954384        0.003645
       542         -0.96954453        0.003645
       543         -0.96954494        0.003645
       544         -0.96954502        0.003645
       545         -0.96954570        0.003645
       546         -0.96954583        0.003645
       547         -0.96954616        0.003645
       548         -0.96954632        0.003645
       549         -0.96954642        0.003645
       550         -0.96954674        0.003645
       551         -0.96954680        0.003645
       552         -0.96954709        0.003645
       553         -0.96954772        0.003645
       554         -0.96954789        0.003645
       555         -0.96954868        0.003645
       556         -0.96954876        0.003645
       557         -0.96954879        0.003645
       558         -0.96954950        0.003645
       559         -0.96954951        0.003645
       560         -0.96955047        0.003645
       561         -0.96955055        0.003645
       562         -0.96955063        0.003645
       563         -0.96955100        0.003645
       564         -0.96955131        0.003645
       565         -0.96955136        0.003645
       566         -0.96955208        0.003645
       567         -0.96955228        0.003645
       568         -0.96955281        0.003645
       569         -0.96955311        0.003645
       570         -0.96955331        0.003645
       571         -0.96955339        0.003645
       572         -0.96955393        0.003645
       573         -0.96955505        0.003645
       574         -0.96955540        0.003645
       575         -0.96955546        0.003645
       576         -0.96955568        0.003645
       577         -0.96955580        0.003645
       578         -0.96955608        0.003645
       579         -0.96955672        0.003645
       580         -0.96955676        0.003645
       581         -0.96955696        0.003645
       582         -0.96955716        0.003645
       583         -0.96955722        0.003645
       584         -0.96955738        0.003645
       585         -0.96955772        0.003645
       586         -0.96955805        0.003645
       587         -0.96955829        0.003645
       588         -0.96955892        0.003645
       589         -0.96955943        0.003645
       590         -0.96955976        0.003645
       591         -0.96955982        0.003645
       592         -0.96955992        0.003645
       593         -0.96956020        0.003645
       594         -0.96956032        0.003645
       595         -0.96956101        0.003645
       596         -0.96956104        0.003645
       597         -0.96956136        0.003645
       598         -0.96956154        0.003645
       599         -0.96956195        0.003645
       600         -0.96956259        0.003645
       601         -0.96956285        0.003645
       602         -0.96956297        0.003645
       603         -0.96956321        0.003645
       604         -0.96956408        0.003645
       605         -0.96956412        0.003645
       606         -0.96956429        0.003375
       607         -0.96956444        0.003375
       608         -0.96956454        0.003375
       609         -0.96956461        0.003375
       610         -0.96956491        0.003375
       611         -0.96956579        0.003375
       612         -0.96956580        0.003375
       613         -0.96956619        0.003375
       614         -0.96956642        0.003375
       615         -0.96956650        0.003375
       616         -0.96956686        0.003375
       617         -0.96956699        0.003375
       618         -0.96956722        0.003375
       619         -0.96956732        0.003375
       620         -0.96956742        0.003375
       621         -0.96956817        0.003375
       622         -0.96956910        0.003375
       623         -0.96956923        0.003375
       624         -0.96956925        0.003375
       625         -0.96956947        0.003375
       626         -0.96957001        0.003375
       627         -0.96957007        0.003375
       628         -0.96957020        0.003375
       629         -0.96957083        0.003125
       630         -0.96957100        0.003125
       631         -0.96957110        0.003125
       632         -0.96957127        0.003125
       633         -0.96957170        0.003125
       634         -0.96957191        0.003125
       635         -0.96957204        0.003125
       636         -0.96957208        0.003125
       637         -0.96957211        0.003125
       638         -0.96957246        0.003125
       639         -0.96957250        0.003125
       640         -0.96957274        0.003125
       641         -0.96957279        0.003125
       642         -0.96957313        0.003125
       643         -0.96957342        0.003125
       644         -0.96957411        0.003125
       645         -0.96957493        0.003125
       646         -0.96957530        0.003125
       647         -0.96957532        0.003125
       648         -0.96957557        0.002893
       649         -0.96957586        0.002893
       650         -0.96957650        0.002893
       651         -0.96957673        0.002893
       652         -0.96957705        0.002893
       653         -0.96957727        0.002893
       654         -0.96957745        0.002893
       655         -0.96957789        0.002893
       656         -0.96957823        0.002893
       657         -0.96957842        0.002893
       658         -0.96957846        0.002893
       659         -0.96957887        0.002893
       660         -0.96957925        0.002893
       661         -0.96957977        0.002893
       662         -0.96958000        0.002893
       663         -0.96958066        0.002893
       664         -0.96958067        0.002893
       665         -0.96958179        0.002893
       666         -0.96958232        0.002893
       667         -0.96958240        0.002893
       668         -0.96958263        0.002893
       669         -0.96958311        0.002893
       670         -0.96958339        0.002893
       671         -0.96958351        0.002893
       672         -0.96958357        0.002893
       673         -0.96958388        0.002893
       674         -0.96958419        0.002893
       675         -0.96958468        0.002893
       676         -0.96958478        0.002893
       677         -0.96958487        0.002893
       678         -0.96958565        0.002893
       679         -0.96958592        0.002893
       680         -0.96958633        0.002893
       681         -0.96958642        0.002893
       682         -0.96958694        0.002893
       683         -0.96958697        0.002893
       684         -0.96958723        0.002893
       685         -0.96958735        0.002893
       686         -0.96958779        0.002893
       687         -0.96958832        0.002893
       688         -0.96958835        0.002893
       689         -0.96958863        0.002893
       690         -0.96958898        0.002893
       691         -0.96958904        0.002893
       692         -0.96958931        0.002893
       693         -0.96958970        0.002893
       694         -0.96959015        0.002893
       695         -0.96959021        0.002893
       696         -0.96959045        0.002893
       697         -0.96959064        0.002893
       698         -0.96959100        0.002893
       699         -0.96959120        0.002893
       700         -0.96959153        0.002893
       701         -0.96959165        0.002893
       702         -0.96959200        0.002893
       703         -0.96959219        0.002893
       704         -0.96959244        0.002893
       705         -0.96959287        0.002893
       706         -0.96959318        0.002893
       707         -0.96959327        0.002893
       708         -0.96959366        0.002893
       709         -0.96959369        0.002679
       710         -0.96959402        0.002679
       711         -0.96959404        0.002679
       712         -0.96959411        0.002679
       713         -0.96959419        0.002679
       714         -0.96959449        0.002679
       715         -0.96959463        0.002679
       716         -0.96959466        0.002679
       717         -0.96959486        0.002679
       718         -0.96959523        0.002679
       719         -0.96959524        0.002679
       720         -0.96959548        0.002679
       721         -0.96959564        0.002679
       722         -0.96959594        0.002679
       723         -0.96959612        0.002679
       724         -0.96959631        0.002679
       725         -0.96959648        0.002679
       726         -0.96959692        0.002679
       727         -0.96959736        0.002679
       728         -0.96959764        0.002679
       729         -0.96959765        0.002679
       730         -0.96959769        0.002679
       731         -0.96959778        0.002679
       732         -0.96959826        0.002679
       733         -0.96959903        0.002679
       734         -0.96959904        0.002679
       735         -0.96959915        0.002679
       736         -0.96959926        0.002679
       737         -0.96959989        0.002679
       738         -0.96959990        0.002679
       739         -0.96960038        0.002679
       740         -0.96960062        0.002679
       741         -0.96960066        0.002679
       742         -0.96960086        0.002679
       743         -0.96960110        0.002679
       744         -0.96960117        0.002480
       745         -0.96960126        0.002480
       746         -0.96960134        0.002480
       747         -0.96960155        0.002480
       748         -0.96960159        0.002480
       749         -0.96960166        0.002480
       750         -0.96960192        0.002480
       751         -0.96960231        0.002480
       752         -0.96960271        0.002480
       753         -0.96960318        0.002480
       754         -0.96960321        0.002480
       755         -0.96960378        0.002480
       756         -0.96960416        0.002480
       757         -0.96960426        0.002480
       758         -0.96960435        0.002480
       759         -0.96960441        0.002480
       760         -0.96960477        0.002480
       761         -0.96960514        0.002480
       762         -0.96960537        0.002480
       763         -0.96960594        0.002480
       764         -0.96960619        0.002480
       765         -0.96960627        0.002480
       766         -0.96960663        0.002480
       767         -0.96960719        0.002480
       768         -0.96960738        0.002480
       769         -0.96960748        0.002480
       770         -0.96960757        0.002480
       771         -0.96960762        0.002480
       772         -0.96960783        0.002480
       773         -0.96960783        0.002480
       774         -0.96960791        0.002480
       775         -0.96960798        0.002480
       776         -0.96960801        0.002480
       777         -0.96960827        0.002480
       778         -0.96960875        0.002480
       779         -0.96960899        0.002480
       780         -0.96960907        0.002480
       781         -0.96960912        0.002480
       782         -0.96960913        0.002480
       783         -0.96960933        0.002480
       784         -0.96960936        0.002480
       785         -0.96960965        0.002480
       786         -0.96960972        0.002480
       787         -0.96960975        0.002480
       788         -0.96960985        0.002480
       789         -0.96961004        0.002480
       790         -0.96961036        0.002480
       791         -0.96961049        0.002480
       792         -0.96961077        0.002480
       793         -0.96961098        0.002480
       794         -0.96961100        0.002480
       795         -0.96961115        0.002480
       796         -0.96961127        0.002480
       797         -0.96961186        0.002480
       798         -0.96961186        0.002480
       799         -0.96961190        0.002480
       800         -0.96961192        0.002480
       801         -0.96961246        0.002480
       802         -0.96961257        0.002480
       803         -0.96961307        0.002480
       804         -0.96961322        0.002480
       805         -0.96961338        0.002480
       806         -0.96961351        0.002480
       807         -0.96961425        0.002480
       808         -0.96961431        0.002480
       809         -0.96961441        0.002480
       810         -0.96961459        0.002480
       811         -0.96961479        0.002480
       812         -0.96961499        0.002480
       813         -0.96961553        0.002480
       814         -0.96961597        0.002480
       815         -0.96961615        0.002480
       816         -0.96961624        0.002480
       817         -0.96961634        0.002480
       818         -0.96961676        0.002480
       819         -0.96961678        0.002480
       820         -0.96961687        0.002480
       821         -0.96961705        0.002480
       822         -0.96961762        0.002480
       823         -0.96961768        0.002480
       824         -0.96961797        0.002480
       825         -0.96961825        0.002480
       826         -0.96961864        0.002480
       827         -0.96961869        0.002480
       828         -0.96961876        0.002480
       829         -0.96961909        0.002480
       830         -0.96961931        0.002480
       831         -0.96961952        0.002480
       832         -0.96961960        0.002480
       833         -0.96961987        0.002480
       834         -0.96962010        0.002480
       835         -0.96962043        0.002480
       836         -0.96962061        0.002480
       837         -0.96962079        0.002480
       838         -0.96962107        0.002480
       839         -0.96962115        0.002480
       840         -0.96962120        0.002480
       841         -0.96962141        0.002480
       842         -0.96962169        0.002480
       843         -0.96962200        0.002480
       844         -0.96962234        0.002480
       845         -0.96962276        0.002480
       846         -0.96962276        0.002480
       847         -0.96962291        0.002480
       848         -0.96962303        0.002480
       849         -0.96962328        0.002480
       850         -0.96962332        0.002480
       851         -0.96962334        0.002480
       852         -0.96962358        0.002480
       853         -0.96962405        0.002480
       854         -0.96962409        0.002480
       855         -0.96962412        0.002480
       856         -0.96962469        0.002480
       857         -0.96962504        0.002480
       858         -0.96962508        0.002480
       859         -0.96962511        0.002480
       860         -0.96962556        0.002480
       861         -0.96962579        0.002480
       862         -0.96962588        0.002480
       863         -0.96962599        0.002480
       864         -0.96962601        0.002480
       865         -0.96962630        0.002480
       866         -0.96962636        0.002480
       867         -0.96962648        0.002480
       868         -0.96962660        0.002480
       869         -0.96962715        0.002480
       870         -0.96962716        0.002480
       871         -0.96962730        0.002480
       872         -0.96962737        0.002480
       873         -0.96962762        0.002480
       874         -0.96962797        0.002480
       875         -0.96962815        0.002480
       876         -0.96962837        0.002480
       877         -0.96962870        0.002480
       878         -0.96962873        0.002480
       879         -0.96962885        0.002480
       880         -0.96962924        0.002480
       881         -0.96962926        0.002480
       882         -0.96962947        0.002480
       883         -0.96962956        0.002296
       884         -0.96962974        0.002296
       885         -0.96962977        0.002296
       886         -0.96962980        0.002296
       887         -0.96962983        0.002296
       888         -0.96962990        0.002296
       889         -0.96963036        0.002296
       890         -0.96963048        0.002296
       891         -0.96963049        0.002296
       892         -0.96963067        0.002296
       893         -0.96963100        0.002296
       894         -0.96963106        0.002296
       895         -0.96963111        0.002296
       896         -0.96963139        0.002296
       897         -0.96963186        0.002296
       898         -0.96963188        0.002296
       899         -0.96963197        0.002296
       900         -0.96963217        0.002296
       901         -0.96963228        0.002296
       902         -0.96963259        0.002296
       903         -0.96963280        0.002296
       904         -0.96963289        0.002296
       905         -0.96963302        0.002296
       906         -0.96963308        0.002296
       907         -0.96963315        0.002296
       908         -0.96963349        0.002296
       909         -0.96963364        0.002296
       910         -0.96963373        0.002296
       911         -0.96963408        0.002296
       912         -0.96963410        0.002296
       913         -0.96963414        0.002296
       914         -0.96963434        0.002296
       915         -0.96963435        0.002296
       916         -0.96963449        0.002296
       917         -0.96963451        0.002296
       918         -0.96963477        0.002296
       919         -0.96963514        0.002296
       920         -0.96963558        0.002296
       921         -0.96963569        0.002296
       922         -0.96963593        0.002296
       923         -0.96963605        0.002296
       924         -0.96963646        0.002296
       925         -0.96963654        0.002296
       926         -0.96963678        0.002296
       927         -0.96963686        0.002296
       928         -0.96963687        0.002296
       929         -0.96963729        0.002296
       930         -0.96963739        0.002296
       931         -0.96963740        0.002296
       932         -0.96963746        0.002296
       933         -0.96963756        0.002296
       934         -0.96963768        0.002296
       935         -0.96963771        0.002296
       936         -0.96963792        0.002296
       937         -0.96963799        0.002296
       938         -0.96963818        0.002296
       939         -0.96963822        0.002296
       940         -0.96963892        0.002296
       941         -0.96963911        0.002296
       942         -0.96963921        0.002296
       943         -0.96963921        0.002296
       944         -0.96963922        0.002296
       945         -0.96963954        0.002296
       946         -0.96963957        0.002296
       947         -0.96963988        0.002296
       948         -0.96964002        0.002296
       949         -0.96964016        0.002296
       950         -0.96964030        0.002296
       951         -0.96964045        0.002296
       952         -0.96964060        0.002296
       953         -0.96964071        0.002296
       954         -0.96964074        0.002296
       955         -0.96964119        0.002296
       956         -0.96964131        0.002296
       957         -0.96964170        0.002296
       958         -0.96964202        0.002296
       959         -0.96964220        0.002296
       960         -0.96964241        0.002296
       961         -0.96964265        0.002296
       962         -0.96964272        0.002296
       963         -0.96964274        0.002296
       964         -0.96964279        0.002296
       965         -0.96964290        0.002296
       966         -0.96964321        0.002296
       967         -0.96964347        0.002296
       968         -0.96964357        0.002296
       969         -0.96964361        0.002296
       970         -0.96964398        0.002296
       971         -0.96964401        0.002296
       972         -0.96964415        0.002296
       973         -0.96964433        0.002296
       974         -0.96964436        0.002296
       975         -0.96964457        0.002296
       976         -0.96964463        0.002296
       977         -0.96964464        0.002296
       978         -0.96964468        0.002296
       979         -0.96964481        0.002296
       980         -0.96964487        0.002296
       981         -0.96964507        0.002296
       982         -0.96964512        0.002296
       983         -0.96964550        0.002296
       984         -0.96964554        0.002296
       985         -0.96964562        0.002296
       986         -0.96964598        0.002296
       987         -0.96964600        0.002296
       988         -0.96964618        0.002296
       989         -0.96964630        0.002296
       990         -0.96964657        0.002296
       991         -0.96964685        0.002296
       992         -0.96964702        0.002296
       993         -0.96964713        0.002296
       994         -0.96964781        0.002296
       995         -0.96964794        0.002296
       996         -0.96964823        0.002296
       997         -0.96964859        0.002296
       998         -0.96964871        0.002296
       999         -0.96964896        0.002296
      1000         -0.96964926        0.002296
      1001         -0.96964928        0.002296
      1002         -0.96964937        0.002296
      1003         -0.96964971        0.002296
      1004         -0.96964986        0.002296
      1005         -0.96965012        0.002296
      1006         -0.96965040        0.002296
      1007         -0.96965063        0.002296
      1008         -0.96965086        0.002296
      1009         -0.96965091        0.002296
      1010         -0.96965121        0.002296
      1011         -0.96965126        0.002126
      1012         -0.96965144        0.002126
      1013         -0.96965160        0.002126
      1014         -0.96965186        0.002126
      1015         -0.96965235        0.002126
      1016         -0.96965250        0.002126
      1017         -0.96965267        0.002126
      1018         -0.96965276        0.002126
      1019         -0.96965317        0.002126
      1020         -0.96965334        0.002126
      1021         -0.96965347        0.002126
      1022         -0.96965352        0.002126
      1023         -0.96965361        0.002126
      1024         -0.96965375        0.002126
      1025         -0.96965379        0.002126
      1026         -0.96965389        0.002126
      1027         -0.96965409        0.002126
      1028         -0.96965423        0.002126
      1029         -0.96965433        0.002126
      1030         -0.96965441        0.002126
      1031         -0.96965447        0.002126
      1032         -0.96965448        0.002126
      1033         -0.96965449        0.002126
      1034         -0.96965484        0.002126
      1035         -0.96965545        0.002126
      1036         -0.96965562        0.002126
      1037         -0.96965591        0.002126
      1038         -0.96965623        0.002126
      1039         -0.96965641        0.002126
      1040         -0.96965646        0.002126
      1041         -0.96965661        0.002126
      1042         -0.96965687        0.002126
      1043         -0.96965690        0.002126
      1044         -0.96965710        0.002126
      1045         -0.96965718        0.002126
      1046         -0.96965747        0.002126
      1047         -0.96965755        0.002126
      1048         -0.96965762        0.002126
      1049         -0.96965764        0.002126
      1050         -0.96965770        0.002126
      1051         -0.96965791        0.002126
      1052         -0.96965804        0.002126
      1053         -0.96965817        0.002126
      1054         -0.96965854        0.002126
      1055         -0.96965856        0.002126
      1056         -0.96965893        0.002126
      1057         -0.96965909        0.002126
      1058         -0.96965910        0.002126
      1059         -0.96965932        0.002126
      1060         -0.96965945        0.002126
      1061         -0.96965953        0.002126
      1062         -0.96965961        0.002126
      1063         -0.96965962        0.002126
      1064         -0.96965979        0.002126
      1065         -0.96965997        0.002126
      1066         -0.96966046        0.002126
      1067         -0.96966070        0.002126
      1068         -0.96966094        0.002126
      1069         -0.96966122        0.002126
      1070         -0.96966195        0.002126
      1071         -0.96966196        0.002126
      1072         -0.96966196        0.002126
      1073         -0.96966213        0.002126
      1074         -0.96966214        0.002126
      1075         -0.96966218        0.002126
      1076         -0.96966232        0.002126
      1077         -0.96966268        0.002126
      1078         -0.96966275        0.002126
      1079         -0.96966275        0.002126
      1080         -0.96966288        0.002126
      1081         -0.96966301        0.002126
      1082         -0.96966314        0.002126
      1083         -0.96966332        0.002126
      1084         -0.96966355        0.002126
      1085         -0.96966359        0.002126
      1086         -0.96966360        0.002126
      1087         -0.96966366        0.002126
      1088         -0.96966427        0.002126
      1089         -0.96966486        0.002126
      1090         -0.96966497        0.002126
      1091         -0.96966505        0.002126
      1092         -0.96966512        0.002126
      1093         -0.96966527        0.002126
      1094         -0.96966530        0.002126
      1095         -0.96966571        0.002126
      1096         -0.96966577        0.002126
      1097         -0.96966601        0.002126
      1098         -0.96966614        0.002126
      1099         -0.96966631        0.002126
      1100         -0.96966632        0.002126
      1101         -0.96966658        0.002126
      1102         -0.96966664        0.002126
      1103         -0.96966680        0.002126
      1104         -0.96966687        0.002126
      1105         -0.96966696        0.002126
      1106         -0.96966742        0.002126
      1107         -0.96966745        0.002126
      1108         -0.96966779        0.002126
      1109         -0.96966793        0.002126
      1110         -0.96966808        0.002126
      1111         -0.96966812        0.002126
      1112         -0.96966816        0.002126
      1113         -0.96966829        0.002126
      1114         -0.96966857        0.002126
      1115         -0.96966875        0.002126
      1116         -0.96966888        0.002126
      1117         -0.96966900        0.002126
      1118         -0.96966907        0.002126
      1119         -0.96966907        0.002126
      1120         -0.96966908        0.002126
      1121         -0.96966911        0.002126
      1122         -0.96966919        0.002126
      1123         -0.96966942        0.002126
      1124         -0.96966968        0.002126
      1125         -0.96966974        0.002126
      1126         -0.96966990        0.002126
      1127         -0.96966999        0.002126
      1128         -0.96967000        0.002126
      1129         -0.96967001        0.002126
      1130         -0.96967005        0.002126
      1131         -0.96967010        0.002126
      1132         -0.96967012        0.002126
      1133         -0.96967015        0.002126
      1134         -0.96967016        0.002126
      1135         -0.96967020        0.002126
      1136         -0.96967045        0.002126
      1137         -0.96967061        0.002126
      1138         -0.96967091        0.002126
      1139         -0.96967102        0.002126
      1140         -0.96967116        0.002126
      1141         -0.96967128        0.002126
      1142         -0.96967134        0.002126
      1143         -0.96967185        0.002126
      1144         -0.96967197        0.002126
      1145         -0.96967218        0.002126
      1146         -0.96967225        0.002126
      1147         -0.96967262        0.002126
      1148         -0.96967270        0.002126
      1149         -0.96967272        0.002126
      1150         -0.96967285        0.002126
      1151         -0.96967295        0.002126
      1152         -0.96967325        0.002126
      1153         -0.96967354        0.002126
      1154         -0.96967376        0.002126
      1155         -0.96967394        0.002126
      1156         -0.96967403        0.002126
      1157         -0.96967419        0.002126
      1158         -0.96967436        0.002126
      1159         -0.96967451        0.002126
      1160         -0.96967479        0.002126
      1161         -0.96967484        0.002126
      1162         -0.96967516        0.002126
      1163         -0.96967528        0.002126
      1164         -0.96967546        0.002126
      1165         -0.96967551        0.002126
      1166         -0.96967582        0.002126
      1167         -0.96967592        0.002126
      1168         -0.96967595        0.002126
      1169         -0.96967616        0.002126
      1170         -0.96967618        0.002126
      1171         -0.96967632        0.002126
      1172         -0.96967651        0.002126
      1173         -0.96967679        0.002126
      1174         -0.96967697        0.002126
      1175         -0.96967701        0.002126
      1176         -0.96967701        0.002126
      1177         -0.96967710        0.002126
      1178         -0.96967719        0.002126
      1179         -0.96967743        0.002126
      1180         -0.96967782        0.002126
      1181         -0.96967800        0.002126
      1182         -0.96967801        0.002126
      1183         -0.96967804        0.002126
      1184         -0.96967833        0.002126
      1185         -0.96967836        0.002126
      1186         -0.96967875        0.002126
      1187         -0.96967893        0.002126
      1188         -0.96967926        0.002126
      1189         -0.96967930        0.002126
      1190         -0.96967931        0.002126
      1191         -0.96967937        0.002126
      1192         -0.96967938        0.002126
      1193         -0.96967943        0.002126
      1194         -0.96967945        0.002126
      1195         -0.96967969        0.002126
      1196         -0.96967974        0.002126
      1197         -0.96968000        0.002126
      1198         -0.96968020        0.002126
      1199         -0.96968024        0.001969
      1200         -0.96968032        0.001969
      1201         -0.96968053        0.001969
      1202         -0.96968069        0.001969
      1203         -0.96968089        0.001969
      1204         -0.96968111        0.001969
      1205         -0.96968142        0.001969
      1206         -0.96968150        0.001969
      1207         -0.96968165        0.001969
      1208         -0.96968199        0.001969
      1209         -0.96968204        0.001969
      1210         -0.96968227        0.001969
      1211         -0.96968245        0.001969
      1212         -0.96968247        0.001969
      1213         -0.96968261        0.001969
      1214         -0.96968283        0.001969
      1215         -0.96968288        0.001969
      1216         -0.96968298        0.001969
      1217         -0.96968298        0.001969
      1218         -0.96968306        0.001969
      1219         -0.96968310        0.001969
      1220         -0.96968330        0.001969
      1221         -0.96968350        0.001969
      1222         -0.96968350        0.001969
      1223         -0.96968374        0.001969
      1224         -0.96968375        0.001969
      1225         -0.96968377        0.001969
      1226         -0.96968457        0.001969
      1227         -0.96968486        0.001969
      1228         -0.96968489        0.001969
      1229         -0.96968505        0.001969
      1230         -0.96968509        0.001969
      1231         -0.96968532        0.001969
      1232         -0.96968548        0.001969
      1233         -0.96968564        0.001969
      1234         -0.96968572        0.001969
      1235         -0.96968573        0.001969
      1236         -0.96968590        0.001969
      1237         -0.96968599        0.001969
      1238         -0.96968644        0.001969
      1239         -0.96968654        0.001969
      1240         -0.96968681        0.001969
      1241         -0.96968699        0.001969
      1242         -0.96968716        0.001969
      1243         -0.96968721        0.001969
      1244         -0.96968738        0.001969
      1245         -0.96968747        0.001969
      1246         -0.96968763        0.001969
      1247         -0.96968772        0.001969
      1248         -0.96968772        0.001969
      1249         -0.96968797        0.001969
      1250         -0.96968807        0.001969
      1251         -0.96968820        0.001969
      1252         -0.96968821        0.001969
      1253         -0.96968823        0.001969
      1254         -0.96968833        0.001969
      1255         -0.96968875        0.001969
      1256         -0.96968893        0.001969
      1257         -0.96968904        0.001969
      1258         -0.96968920        0.001969
      1259         -0.96968937        0.001969
      1260         -0.96968957        0.001969
      1261         -0.96968966        0.001969
      1262         -0.96968983        0.001969
      1263         -0.96968995        0.001969
      1264         -0.96969018        0.001969
      1265         -0.96969032        0.001969
      1266         -0.96969049        0.001969
      1267         -0.96969060        0.001969
      1268         -0.96969069        0.001969
      1269         -0.96969073        0.001969
      1270         -0.96969074        0.001969
      1271         -0.96969095        0.001969
      1272         -0.96969112        0.001969
      1273         -0.96969119        0.001969
      1274         -0.96969126        0.001969
      1275         -0.96969134        0.001969
      1276         -0.96969146        0.001969
      1277         -0.96969187        0.001969
      1278         -0.96969194        0.001969
      1279         -0.96969238        0.001969
      1280         -0.96969247        0.001969
      1281         -0.96969287        0.001969
      1282         -0.96969287        0.001969
      1283         -0.96969296        0.001969
      1284         -0.96969298        0.001969
      1285         -0.96969301        0.001969
      1286         -0.96969310        0.001969
      1287         -0.96969311        0.001969
      1288         -0.96969317        0.001969
      1289         -0.96969324        0.001969
      1290         -0.96969355        0.001969
      1291         -0.96969374        0.001969
      1292         -0.96969382        0.001969
      1293         -0.96969400        0.001969
      1294         -0.96969403        0.001969
      1295         -0.96969419        0.001969
      1296         -0.96969431        0.001969
      1297         -0.96969468        0.001969
      1298         -0.96969470        0.001969
      1299         -0.96969491        0.001969
      1300         -0.96969491        0.001969
      1301         -0.96969494        0.001969
      1302         -0.96969498        0.001969
      1303         -0.96969519        0.001969
      1304         -0.96969553        0.001969
      1305         -0.96969554        0.001969
      1306         -0.96969554        0.001969
      1307         -0.96969570        0.001969
      1308         -0.96969579        0.001969
      1309         -0.96969617        0.001969
      1310         -0.96969644        0.001969
      1311         -0.96969646        0.001969
      1312         -0.96969659        0.001969
      1313         -0.96969670        0.001969
      1314         -0.96969704        0.001969
      1315         -0.96969704        0.001969
      1316         -0.96969709        0.001969
      1317         -0.96969731        0.001969
      1318         -0.96969740        0.001969
      1319         -0.96969751        0.001969
      1320         -0.96969760        0.001969
      1321         -0.96969781        0.001969
      1322         -0.96969789        0.001969
      1323         -0.96969800        0.001969
      1324         -0.96969805        0.001969
      1325         -0.96969810        0.001969
      1326         -0.96969841        0.001969
      1327         -0.96969869        0.001969
      1328         -0.96969878        0.001969
      1329         -0.96969888        0.001969
      1330         -0.96969897        0.001969
      1331         -0.96969898        0.001969
      1332         -0.96969903        0.001969
      1333         -0.96969908        0.001969
      1334         -0.96969930        0.001969
      1335         -0.96969951        0.001969
      1336         -0.96969974        0.001969
      1337         -0.96969986        0.001969
      1338         -0.96969999        0.001969
      1339         -0.96970000        0.001969
      1340         -0.96970009        0.001969
      1341         -0.96970017        0.001969
      1342         -0.96970024        0.001969
      1343         -0.96970036        0.001969
      1344         -0.96970040        0.001969
      1345         -0.96970046        0.001969
      1346         -0.96970049        0.001969
      1347         -0.96970056        0.001969
      1348         -0.96970096        0.001969
      1349         -0.96970112        0.001969
      1350         -0.96970119        0.001969
      1351         -0.96970131        0.001969
      1352         -0.96970138        0.001969
      1353         -0.96970173        0.001969
      1354         -0.96970179        0.001969
      1355         -0.96970202        0.001969
      1356         -0.96970208        0.001969
      1357         -0.96970226        0.001969
      1358         -0.96970232        0.001969
      1359         -0.96970256        0.001969
      1360         -0.96970290        0.001969
      1361         -0.96970313        0.001969
      1362         -0.96970326        0.001969
      1363         -0.96970346        0.001823
      1364         -0.96970360        0.001823
      1365         -0.96970366        0.001823
      1366         -0.96970378        0.001823
      1367         -0.96970401        0.001823
      1368         -0.96970403        0.001823
      1369         -0.96970409        0.001823
      1370         -0.96970419        0.001823
      1371         -0.96970443        0.001823
      1372         -0.96970445        0.001823
      1373         -0.96970452        0.001823
      1374         -0.96970453        0.001823
      1375         -0.96970479        0.001823
      1376         -0.96970487        0.001823
      1377         -0.96970488        0.001823
      1378         -0.96970508        0.001823
      1379         -0.96970526        0.001823
      1380         -0.96970568        0.001823
      1381         -0.96970579        0.001823
      1382         -0.96970587        0.001823
      1383         -0.96970592        0.001823
      1384         -0.96970625        0.001823
      1385         -0.96970642        0.001823
      1386         -0.96970651        0.001823
      1387         -0.96970667        0.001823
      1388         -0.96970718        0.001823
      1389         -0.96970726        0.001823
      1390         -0.96970735        0.001823
      1391         -0.96970753        0.001823
      1392         -0.96970771        0.001823
      1393         -0.96970774        0.001823
      1394         -0.96970777        0.001823
      1395         -0.96970785        0.001823
      1396         -0.96970797        0.001823
      1397         -0.96970812        0.001823
      1398         -0.96970814        0.001823
      1399         -0.96970815        0.001823
      1400         -0.96970822        0.001823
      1401         -0.96970860        0.001823
      1402         -0.96970867        0.001823
      1403         -0.96970870        0.001823
      1404         -0.96970882        0.001823
      1405         -0.96970934        0.001823
      1406         -0.96970939        0.001823
      1407         -0.96970950        0.001823
      1408         -0.96970963        0.001823
      1409         -0.96970971        0.001823
      1410         -0.96970987        0.001823
      1411         -0.96970992        0.001823
      1412         -0.96971003        0.001823
      1413         -0.96971005        0.001823
      1414         -0.96971045        0.001823
      1415         -0.96971066        0.001823
      1416         -0.96971078        0.001823
      1417         -0.96971083        0.001823
      1418         -0.96971093        0.001823
      1419         -0.96971097        0.001823
      1420         -0.96971134        0.001823
      1421         -0.96971135        0.001823
      1422         -0.96971155        0.001823
      1423         -0.96971161        0.001823
      1424         -0.96971163        0.001823
      1425         -0.96971173        0.001823
      1426         -0.96971180        0.001823
      1427         -0.96971196        0.001688
      1428         -0.96971211        0.001688
      1429         -0.96971237        0.001688
      1430         -0.96971246        0.001688
      1431         -0.96971261        0.001688
      1432         -0.96971287        0.001688
      1433         -0.96971296        0.001688
      1434         -0.96971300        0.001688
      1435         -0.96971308        0.001688
      1436         -0.96971314        0.001688
      1437         -0.96971334        0.001688
      1438         -0.96971360        0.001688
      1439         -0.96971379        0.001688
      1440         -0.96971386        0.001688
      1441         -0.96971389        0.001688
      1442         -0.96971390        0.001688
      1443         -0.96971397        0.001688
      1444         -0.96971399        0.001688
      1445         -0.96971420        0.001688
      1446         -0.96971433        0.001688
      1447         -0.96971440        0.001688
      1448         -0.96971441        0.001688
      1449         -0.96971442        0.001688
      1450         -0.96971442        0.001688
      1451         -0.96971446        0.001688
      1452         -0.96971489        0.001688
      1453         -0.96971490        0.001688
      1454         -0.96971504        0.001688
      1455         -0.96971506        0.001688
      1456         -0.96971509        0.001688
      1457         -0.96971528        0.001688
      1458         -0.96971545        0.001688
      1459         -0.96971565        0.001688
      1460         -0.96971601        0.001688
      1461         -0.96971602        0.001688
      1462         -0.96971613        0.001688
      1463         -0.96971624        0.001688
      1464         -0.96971629        0.001688
      1465         -0.96971643        0.001688
      1466         -0.96971653        0.001688
      1467         -0.96971662        0.001688
      1468         -0.96971681        0.001688
      1469         -0.96971695        0.001688
      1470         -0.96971697        0.001688
      1471         -0.96971719        0.001688
      1472         -0.96971734        0.001688
      1473         -0.96971737        0.001688
      1474         -0.96971747        0.001688
      1475         -0.96971748        0.001688
      1476         -0.96971759        0.001688
      1477         -0.96971788        0.001688
      1478         -0.96971799        0.001688
      1479         -0.96971800        0.001688
      1480         -0.96971806        0.001688
      1481         -0.96971815        0.001688
      1482         -0.96971839        0.001688
      1483         -0.96971843        0.001688
      1484         -0.96971861        0.001688
      1485         -0.96971869        0.001688
      1486         -0.96971879        0.001688
      1487         -0.96971899        0.001688
      1488         -0.96971908        0.001688
      1489         -0.96971917        0.001688
      1490         -0.96971917        0.001688
      1491         -0.96971920        0.001688
      1492         -0.96971921        0.001688
      1493         -0.96971944        0.001688
      1494         -0.96971950        0.001688
      1495         -0.96971981        0.001688
      1496         -0.96971982        0.001688
      1497         -0.96971988        0.001688
      1498         -0.96971996        0.001688
      1499         -0.96972008        0.001688
      1500         -0.96972036        0.001688
      1501         -0.96972046        0.001688
      1502         -0.96972049        0.001688
      1503         -0.96972054        0.001688
      1504         -0.96972077        0.001688
      1505         -0.96972083        0.001688
      1506         -0.96972087        0.001688
      1507         -0.96972093        0.001688
      1508         -0.96972099        0.001688
      1509         -0.96972106        0.001688
      1510         -0.96972108        0.001688
      1511         -0.96972111        0.001688
      1512         -0.96972116        0.001688
      1513         -0.96972123        0.001688
      1514         -0.96972145        0.001688
      1515         -0.96972156        0.001688
      1516         -0.96972185        0.001688
      1517         -0.96972199        0.001688
      1518         -0.96972201        0.001688
      1519         -0.96972206        0.001688
      1520         -0.96972223        0.001688
      1521         -0.96972228        0.001688
      1522         -0.96972258        0.001688
      1523         -0.96972282        0.001688
      1524         -0.96972289        0.001688
      1525         -0.96972309        0.001688
      1526         -0.96972312        0.001688
      1527         -0.96972314        0.001688
      1528         -0.96972323        0.001688
      1529         -0.96972324        0.001688
      1530         -0.96972347        0.001688
      1531         -0.96972358        0.001688
      1532         -0.96972365        0.001688
      1533         -0.96972378        0.001688
      1534         -0.96972378        0.001688
      1535         -0.96972381        0.001688
      1536         -0.96972384        0.001688
      1537         -0.96972407        0.001688
      1538         -0.96972416        0.001688
      1539         -0.96972428        0.001688
      1540         -0.96972428        0.001688
      1541         -0.96972444        0.001688
      1542         -0.96972448        0.001688
      1543         -0.96972451        0.001688
      1544         -0.96972455        0.001688
      1545         -0.96972473        0.001688
      1546         -0.96972481        0.001688
      1547         -0.96972489        0.001688
      1548         -0.96972512        0.001688
      1549         -0.96972529        0.001688
      1550         -0.96972547        0.001688
      1551         -0.96972547        0.001688
[...]
   9      -0.00000     0.00000     0.00000     0.00000     0.00000     0.00000
  10      -0.00000     0.00000     0.00000     0.00000     0.00000     0.00000

            7           8           9          10  
       ----------- ----------- ----------- -----------
   1       0.00000     0.00000    -0.00000    -0.00000
   2       0.00000    -0.00000    -0.00000     0.00000
   3       0.00000     0.00000     0.00000     0.00000
   4       0.00000    -0.00000     0.00000     0.00000
   5       0.00000    -0.00000     0.00000     0.00000
   6       0.00000     0.00000     0.00000     0.00000
   7       0.00000     0.00000    -0.00000     0.00000
   8       0.00000    -0.00000    -0.00000     0.00000
   9       0.00000     0.00000    -0.00000     0.00000
  10       0.00000     0.00000     0.00000    -0.00000

                  WFN1 Final alpha Correlation Function Analysis
                  ----------------------------------------------


 global array: Ca[1:10,1:10],  handle: -981 

                     1                       2                       3                       4                       5                       6  
       ----------------------- ----------------------- ----------------------- ----------------------- ----------------------- -----------------------
   1       0.13607,    0.96475    -0.01370,   -0.21466    -0.00479,    0.01498    -0.04362,   -0.00960    -0.01811,   -0.01831     0.01633,   -0.01590
   2      -0.21315,   -0.00021    -0.96923,   -0.05980    -0.05757,   -0.00650    -0.06232,    0.00447     0.00734,    0.02262     0.03720,    0.00850
   3       0.00419,   -0.03762     0.07790,   -0.02816    -0.69129,    0.33883    -0.56385,    0.27169     0.01591,   -0.00285    -0.02317,    0.03769
   4       0.00121,    0.03308    -0.00472,   -0.01850    -0.54441,   -0.31492     0.66273,    0.39580    -0.02689,    0.06110    -0.00253,    0.00343
   5       0.01527,    0.01826    -0.02873,    0.00981     0.00668,   -0.03436     0.04139,    0.01088     0.39895,   -0.53072    -0.44697,    0.59151
   6      -0.00277,    0.02166     0.01543,    0.01310    -0.00893,   -0.02960    -0.01202,   -0.00425     0.22369,    0.33839     0.23633,    0.29450
   7       0.00136,   -0.02144    -0.00044,   -0.02370    -0.01022,   -0.03002    -0.00512,   -0.01539     0.39334,   -0.04393     0.36706,    0.01936
   8      -0.01995,    0.00444    -0.00238,   -0.00620     0.02670,    0.01467     0.01202,   -0.03140    -0.29162,    0.16969    -0.22831,    0.15844
   9       0.02158,   -0.00578     0.03764,   -0.00474     0.05846,   -0.02110     0.00641,    0.04935     0.29183,    0.10664     0.27323,    0.07821
  10      -0.01089,   -0.01564    -0.00743,   -0.00996    -0.00370,   -0.01310     0.01951,   -0.01588    -0.11540,   -0.09141    -0.05573,   -0.08707

                     7                       8                       9                      10  
       ----------------------- ----------------------- ----------------------- -----------------------
   1      -0.00123,    0.01441    -0.00794,   -0.00286    -0.02516,   -0.00437    -0.00381,   -0.01039
   2      -0.01504,    0.01004     0.03123,   -0.00053    -0.00876,   -0.02955     0.00444,   -0.00609
   3      -0.02003,    0.02334     0.02038,   -0.03318    -0.04566,    0.01277    -0.01155,   -0.01491
   4       0.00381,   -0.04614    -0.00893,    0.01484    -0.00035,   -0.01246     0.00622,   -0.00327
   5      -0.00253,   -0.02662     0.02808,    0.00820     0.03088,    0.03002    -0.03837,   -0.00812
   6       0.23618,    0.40511     0.25451,    0.37038     0.29449,    0.42647    -0.01303,   -0.01574
   7       0.42400,   -0.05301    -0.48231,    0.04830    -0.53431,    0.03992    -0.00540,   -0.03610
   8       0.46995,   -0.27835     0.46779,   -0.24241    -0.40573,    0.25399     0.03622,    0.00714
   9      -0.48894,   -0.15038     0.48617,    0.13211    -0.40603,   -0.16786    -0.30443,   -0.11490
  10       0.10464,    0.14907    -0.07500,   -0.14949     0.07268,    0.10487    -0.49693,   -0.80122

                   WFN1 Final beta Correlation Function Analysis
                   ---------------------------------------------


 global array: Cb[1:10,1:10],  handle: -980 

                     1                       2                       3                       4                       5                       6  
       ----------------------- ----------------------- ----------------------- ----------------------- ----------------------- -----------------------
   1       0.13607,    0.96475    -0.01370,   -0.21466    -0.00479,    0.01498    -0.04362,   -0.00960    -0.01811,   -0.01831     0.01633,   -0.01590
   2      -0.21315,   -0.00021    -0.96923,   -0.05980    -0.05757,   -0.00650    -0.06232,    0.00447     0.00734,    0.02262     0.03720,    0.00850
   3       0.00419,   -0.03762     0.07790,   -0.02816    -0.69129,    0.33883    -0.56385,    0.27169     0.01591,   -0.00285    -0.02317,    0.03769
   4       0.00121,    0.03308    -0.00472,   -0.01850    -0.54441,   -0.31492     0.66273,    0.39580    -0.02689,    0.06110    -0.00253,    0.00343
   5       0.01527,    0.01826    -0.02873,    0.00981     0.00668,   -0.03436     0.04139,    0.01088     0.39895,   -0.53072    -0.44697,    0.59151
   6      -0.00277,    0.02166     0.01543,    0.01310    -0.00893,   -0.02960    -0.01202,   -0.00425     0.22369,    0.33839     0.23633,    0.29450
   7       0.00136,   -0.02144    -0.00044,   -0.02370    -0.01022,   -0.03002    -0.00512,   -0.01539     0.39334,   -0.04393     0.36706,    0.01936
   8      -0.01995,    0.00444    -0.00238,   -0.00620     0.02670,    0.01467     0.01202,   -0.03140    -0.29162,    0.16969    -0.22831,    0.15844
   9       0.02158,   -0.00578     0.03764,   -0.00474     0.05846,   -0.02110     0.00641,    0.04935     0.29183,    0.10664     0.27323,    0.07821
  10      -0.01089,   -0.01564    -0.00743,   -0.00996    -0.00370,   -0.01310     0.01951,   -0.01588    -0.11540,   -0.09141    -0.05573,   -0.08707

                     7                       8                       9                      10  
       ----------------------- ----------------------- ----------------------- -----------------------
   1      -0.00123,    0.01441    -0.00794,   -0.00286    -0.02516,   -0.00437    -0.00381,   -0.01039
   2      -0.01504,    0.01004     0.03123,   -0.00053    -0.00876,   -0.02955     0.00444,   -0.00609
   3      -0.02003,    0.02334     0.02038,   -0.03318    -0.04566,    0.01277    -0.01155,   -0.01491
   4       0.00381,   -0.04614    -0.00893,    0.01484    -0.00035,   -0.01246     0.00622,   -0.00327
   5      -0.00253,   -0.02662     0.02808,    0.00820     0.03088,    0.03002    -0.03837,   -0.00812
   6       0.23618,    0.40511     0.25451,    0.37038     0.29449,    0.42647    -0.01303,   -0.01574
   7       0.42400,   -0.05301    -0.48231,    0.04830    -0.53431,    0.03992    -0.00540,   -0.03610
   8       0.46995,   -0.27835     0.46779,   -0.24241    -0.40573,    0.25399     0.03622,    0.00714
   9      -0.48894,   -0.15038     0.48617,    0.13211    -0.40603,   -0.16786    -0.30443,   -0.11490
  10       0.10464,    0.14907    -0.07500,   -0.14949     0.07268,    0.10487    -0.49693,   -0.80122

                     WFN1 Final Alpha Natural Orbital Analysis
                     -----------------------------------------

 Vector    1  Occ=9.492542D-01  E= 0.000000D+00
              MO Center=  6.1D-06,  1.6D-05,  3.0D-05, r^2= 1.5D+00
   Bfn.  Coefficient  Atom+Function         Bfn.  Coefficient  Atom+Function  
  ----- ------------  ---------------      ----- ------------  ---------------
     2      0.442612  1 H  s                  7      0.442769  2 H  s          
     1      0.230409  1 H  s                  6      0.230324  2 H  s          

 Vector    2  Occ=4.543216D-02  E= 0.000000D+00
              MO Center=  5.0D-06, -2.8D-05, -2.1D-05, r^2= 1.9D+00
   Bfn.  Coefficient  Atom+Function         Bfn.  Coefficient  Atom+Function  
  ----- ------------  ---------------      ----- ------------  ---------------
     2     -0.609207  1 H  s                  7      0.609177  2 H  s          
     1     -0.309894  1 H  s                  6      0.309908  2 H  s          

 Vector    3  Occ=1.432510D-03  E= 0.000000D+00
              MO Center=  8.5D-04, -3.2D-04, -3.0D-03, r^2= 2.3D+00
   Bfn.  Coefficient  Atom+Function         Bfn.  Coefficient  Atom+Function  
  ----- ------------  ---------------      ----- ------------  ---------------
     2      1.035444  1 H  s                  7     -1.032430  2 H  s          
     1     -0.884377  1 H  s                  6      0.879711  2 H  s          
    10     -0.102573  2 H  pz                 5     -0.096871  1 H  pz         

 Vector    4  Occ=1.095942D-03  E= 0.000000D+00
              MO Center=  1.2D-03, -4.1D-04,  2.3D-03, r^2= 1.7D+00
   Bfn.  Coefficient  Atom+Function         Bfn.  Coefficient  Atom+Function  
  ----- ------------  ---------------      ----- ------------  ---------------
     1      0.883738  1 H  s                  6      0.885978  2 H  s          
     2     -0.663762  1 H  s                  7     -0.666521  2 H  s          
     5      0.236970  1 H  pz                10     -0.236607  2 H  pz         

 Vector    5  Occ=5.665544D-04  E= 0.000000D+00
              MO Center= -2.9D-04, -5.9D-04,  1.8D-03, r^2= 1.2D+00
   Bfn.  Coefficient  Atom+Function         Bfn.  Coefficient  Atom+Function  
  ----- ------------  ---------------      ----- ------------  ---------------
     5      0.659018  1 H  pz                10     -0.658800  2 H  pz         
     6     -0.276715  2 H  s                  1     -0.268503  1 H  s          
     7      0.153889  2 H  s                  2      0.144126  1 H  s          

 Vector    6  Occ=4.768500D-04  E= 0.000000D+00
              MO Center=  2.9D-06,  1.0D-03, -3.9D-04, r^2= 1.1D+00
   Bfn.  Coefficient  Atom+Function         Bfn.  Coefficient  Atom+Function  
  ----- ------------  ---------------      ----- ------------  ---------------
     4     -0.706235  1 H  py                 9     -0.705966  2 H  py         

 Vector    7  Occ=4.616842D-04  E= 0.000000D+00
              MO Center= -8.9D-04, -1.8D-06, -6.7D-04, r^2= 1.1D+00
   Bfn.  Coefficient  Atom+Function         Bfn.  Coefficient  Atom+Function  
  ----- ------------  ---------------      ----- ------------  ---------------
     3      0.706157  1 H  px                 8      0.705691  2 H  px         

 Vector    8  Occ=4.176619D-04  E= 0.000000D+00
              MO Center= -2.8D-04, -2.8D-05,  7.3D-04, r^2= 1.1D+00
   Bfn.  Coefficient  Atom+Function         Bfn.  Coefficient  Atom+Function  
  ----- ------------  ---------------      ----- ------------  ---------------
     3      0.707698  1 H  px                 8     -0.707489  2 H  px         
    10      0.030209  2 H  pz         

 Vector    9  Occ=4.992543D-04  E= 0.000000D+00
              MO Center= -2.3D-06,  1.2D-04,  5.0D-04, r^2= 1.1D+00
   Bfn.  Coefficient  Atom+Function         Bfn.  Coefficient  Atom+Function  
  ----- ------------  ---------------      ----- ------------  ---------------
     4      0.707676  1 H  py                 9     -0.707773  2 H  py         
    10     -0.025053  2 H  pz         

 Vector   10  Occ=3.632286D-04  E= 0.000000D+00
              MO Center= -6.0D-04,  2.3D-04, -1.2D-03, r^2= 1.2D+00
   Bfn.  Coefficient  Atom+Function         Bfn.  Coefficient  Atom+Function  
  ----- ------------  ---------------      ----- ------------  ---------------
     5      0.720715  1 H  pz                10      0.719563  2 H  pz         
     2      0.359921  1 H  s                  7     -0.358700  2 H  s          
     1     -0.205278  1 H  s                  6      0.203662  2 H  s          
     8      0.032353  2 H  px         


                     WFN1 Final Beta Natural Orbital Analysis
                     ----------------------------------------

 Vector    1  Occ=9.492542D-01  E= 0.000000D+00
              MO Center=  6.1D-06,  1.6D-05,  3.0D-05, r^2= 1.5D+00
   Bfn.  Coefficient  Atom+Function         Bfn.  Coefficient  Atom+Function  
  ----- ------------  ---------------      ----- ------------  ---------------
     2      0.442612  1 H  s                  7      0.442769  2 H  s          
     1      0.230409  1 H  s                  6      0.230324  2 H  s          

 Vector    2  Occ=4.543216D-02  E= 0.000000D+00
              MO Center=  5.0D-06, -2.8D-05, -2.1D-05, r^2= 1.9D+00
   Bfn.  Coefficient  Atom+Function         Bfn.  Coefficient  Atom+Function  
  ----- ------------  ---------------      ----- ------------  ---------------
     2     -0.609207  1 H  s                  7      0.609177  2 H  s          
     1     -0.309894  1 H  s                  6      0.309908  2 H  s          

 Vector    3  Occ=1.432510D-03  E= 0.000000D+00
              MO Center=  8.5D-04, -3.2D-04, -3.0D-03, r^2= 2.3D+00
   Bfn.  Coefficient  Atom+Function         Bfn.  Coefficient  Atom+Function  
  ----- ------------  ---------------      ----- ------------  ---------------
     2      1.035444  1 H  s                  7     -1.032430  2 H  s          
     1     -0.884377  1 H  s                  6      0.879711  2 H  s          
    10     -0.102573  2 H  pz                 5     -0.096871  1 H  pz         

 Vector    4  Occ=1.095942D-03  E= 0.000000D+00
              MO Center=  1.2D-03, -4.1D-04,  2.3D-03, r^2= 1.7D+00
   Bfn.  Coefficient  Atom+Function         Bfn.  Coefficient  Atom+Function  
  ----- ------------  ---------------      ----- ------------  ---------------
     1      0.883738  1 H  s                  6      0.885978  2 H  s          
     2     -0.663762  1 H  s                  7     -0.666521  2 H  s          
     5      0.236970  1 H  pz                10     -0.236607  2 H  pz         

 Vector    5  Occ=5.665544D-04  E= 0.000000D+00
              MO Center= -2.9D-04, -5.9D-04,  1.8D-03, r^2= 1.2D+00
   Bfn.  Coefficient  Atom+Function         Bfn.  Coefficient  Atom+Function  
  ----- ------------  ---------------      ----- ------------  ---------------
     5      0.659018  1 H  pz                10     -0.658800  2 H  pz         
     6     -0.276715  2 H  s                  1     -0.268503  1 H  s          
     7      0.153889  2 H  s                  2      0.144126  1 H  s          

 Vector    6  Occ=4.768500D-04  E= 0.000000D+00
              MO Center=  2.9D-06,  1.0D-03, -3.9D-04, r^2= 1.1D+00
   Bfn.  Coefficient  Atom+Function         Bfn.  Coefficient  Atom+Function  
  ----- ------------  ---------------      ----- ------------  ---------------
     4     -0.706235  1 H  py                 9     -0.705966  2 H  py         

 Vector    7  Occ=4.616842D-04  E= 0.000000D+00
              MO Center= -8.9D-04, -1.8D-06, -6.7D-04, r^2= 1.1D+00
   Bfn.  Coefficient  Atom+Function         Bfn.  Coefficient  Atom+Function  
  ----- ------------  ---------------      ----- ------------  ---------------
     3      0.706157  1 H  px                 8      0.705691  2 H  px         

 Vector    8  Occ=4.176619D-04  E= 0.000000D+00
              MO Center= -2.8D-04, -2.8D-05,  7.3D-04, r^2= 1.1D+00
   Bfn.  Coefficient  Atom+Function         Bfn.  Coefficient  Atom+Function  
  ----- ------------  ---------------      ----- ------------  ---------------
     3      0.707698  1 H  px                 8     -0.707489  2 H  px         
    10      0.030209  2 H  pz         

 Vector    9  Occ=4.992543D-04  E= 0.000000D+00
              MO Center= -2.3D-06,  1.2D-04,  5.0D-04, r^2= 1.1D+00
   Bfn.  Coefficient  Atom+Function         Bfn.  Coefficient  Atom+Function  
  ----- ------------  ---------------      ----- ------------  ---------------
     4      0.707676  1 H  py                 9     -0.707773  2 H  py         
    10     -0.025053  2 H  pz         

 Vector   10  Occ=3.632286D-04  E= 0.000000D+00
              MO Center= -6.0D-04,  2.3D-04, -1.2D-03, r^2= 1.2D+00
   Bfn.  Coefficient  Atom+Function         Bfn.  Coefficient  Atom+Function  
  ----- ------------  ---------------      ----- ------------  ---------------
     5      0.720715  1 H  pz                10      0.719563  2 H  pz         
     2      0.359921  1 H  s                  7     -0.358700  2 H  s          
     1     -0.205278  1 H  s                  6      0.203662  2 H  s          
     8      0.032353  2 H  px         


 Task  times  cpu:     2644.5s     wall:     3085.7s
 Summary of allocated global arrays
-----------------------------------
  No active global arrays



                         GA Statistics for process    0
                         ------------------------------

       create   destroy   get      put      acc     scatter   gather  read&inc
calls:   44       44     9.59e+08 4.11e+05 5.46e+05    0        0       11     
number of processes/call 1.00e+00 1.00e+00 1.00e+00 0.00e+00 0.00e+00
bytes total:             7.67e+11 4.37e+08 5.46e+08 0.00e+00 0.00e+00 8.80e+01
bytes remote:            0.00e+00 0.00e+00 0.00e+00 0.00e+00 0.00e+00 0.00e+00
Max memory consumed for GA by this process: 268000 bytes
MA_summarize_allocated_blocks: starting scan ...
MA_summarize_allocated_blocks: scan completed: 0 heap blocks, 0 stack blocks
MA usage statistics:

	allocation statistics:
					      heap	     stack
					      ----	     -----
	current number of blocks	         0	         0
	maximum number of blocks	        19	        17
	current total bytes		         0	         0
	maximum total bytes		   3205432	  22508664
	maximum total K-bytes		      3206	     22509
	maximum total M-bytes		         4	        23


                                NWChem Input Module
                                -------------------





                                     CITATION
                                     --------
                Please cite the following reference when publishing
                           results obtained with NWChem:

                 M. Valiev, E.J. Bylaska, N. Govind, K. Kowalski,
              T.P. Straatsma, H.J.J. van Dam, D. Wang, J. Nieplocha,
                        E. Apra, T.L. Windus, W.A. de Jong
                 "NWChem: a comprehensive and scalable open-source
                  solution for large scale molecular simulations"
                      Comput. Phys. Commun. 181, 1477 (2010)
                           doi:10.1016/j.cpc.2010.04.018

                                      AUTHORS
                                      -------
          E. Apra, E. J. Bylaska, W. A. de Jong, N. Govind, K. Kowalski,
       T. P. Straatsma, M. Valiev, H. J. J. van Dam, D. Wang, T. L. Windus,
        J. Hammond, J. Autschbach, K. Bhaskaran-Nair, J. Brabec, K. Lopata,
    S. A. Fischer, S. Krishnamoorthy, M. Jacquelin, W. Ma, M. Klemm, O. Villa,
      Y. Chen, V. Anisimov, F. Aquino, S. Hirata, M. T. Hackler, V. Konjkov,
      T. Risthaus, M. Malagoli, A. Marenich, A. Otero-de-la-Roza, J. Mullin,
        P. Nichols, R. Peverati, J. Pittner, Y. Zhao, P.-D. Fan, A. Fonari,
       M. Williamson, R. J. Harrison, J. R. Rehr, M. Dupuis, D. Silverstein,
    D. M. A. Smith, J. Nieplocha, V. Tipparaju, M. Krishnan, B. E. Van Kuiken,
        A. Vazquez-Mayagoitia, L. Jensen, M. Swart, Q. Wu, T. Van Voorhis,
     A. A. Auer, M. Nooijen, L. D. Crosby, E. Brown, G. Cisneros, G. I. Fann,
   H. Fruchtl, J. Garza, K. Hirao, R. A. Kendall, J. A. Nichols, K. Tsemekhman,
    K. Wolinski, J. Anchell, D. E. Bernholdt, P. Borowski, T. Clark, D. Clerc,
   H. Dachsel, M. J. O. Deegan, K. Dyall, D. Elwood, E. Glendening, M. Gutowski,
   A. C. Hess, J. Jaffe, B. G. Johnson, J. Ju, R. Kobayashi, R. Kutteh, Z. Lin,
   R. Littlefield, X. Long, B. Meng, T. Nakajima, S. Niu, L. Pollack, M. Rosing,
   K. Glaesemann, G. Sandrone, M. Stave, H. Taylor, G. Thomas, J. H. van Lenthe,
                               A. T. Wong, Z. Zhang.

 Total times  cpu:     2644.5s     wall:     3085.7s
