 argument  1 = input-wf.nw



============================== echo of input deck ==============================
echo
start wfn1_dat
geometry units au noautoz
  H 0 0 -.64434600000000000000
  H 0 0  .64434600000000000000
  symmetry cs
end
basis
  H library 6-31g**
end
set wfn1:input_vectors "atomic"
set wfn1:solver "monte-carlo"
set wfn1:print_error F
set wfn1:t_initial 0.1
#set wfn1:corr_expr "wfn1_mx"
set wfn1:corr_expr "wfn1c"
set wfn1:t_bath 0.0
set wfn1:maxit  20000
task wfn1 energy
================================================================================


                                         
                                         


              Northwest Computational Chemistry Package (NWChem) 6.8
              ------------------------------------------------------


                    Environmental Molecular Sciences Laboratory
                       Pacific Northwest National Laboratory
                                Richland, WA 99352

                              Copyright (c) 1994-2015
                       Pacific Northwest National Laboratory
                            Battelle Memorial Institute

             NWChem is an open-source computational chemistry package
                        distributed under the terms of the
                      Educational Community License (ECL) 2.0
             A copy of the license is included with this distribution
                              in the LICENSE.TXT file

                                  ACKNOWLEDGMENT
                                  --------------

            This software and its documentation were developed at the
            EMSL at Pacific Northwest National Laboratory, a multiprogram
            national laboratory, operated for the U.S. Department of Energy
            by Battelle under Contract Number DE-AC05-76RL01830. Support
            for this work was provided by the Department of Energy Office
            of Biological and Environmental Research, Office of Basic
            Energy Sciences, and the Office of Advanced Scientific Computing.


           Job information
           ---------------

    hostname        = erato
    program         = ../../../bin/LINUX64/nwchem
    date            = Mon Mar  1 09:56:13 2021

    compiled        = Sun_Feb_28_18:02:42_2021
    source          = /home/hvandam/nwchem-1-wfn1
    nwchem branch   = Development
    nwchem revision = nwchem_on_git-124-gad72d19fff205e319ffbbf2bca37a04ded6ad57b
    ga revision     = nwchem_on_git-124-gad72d19
    use scalapack   = F
    input           = input-wf.nw
    prefix          = wfn1_dat.
    data base       = ./wfn1_dat.db
    status          = startup
    nproc           =        1
    time left       =     -1s



           Memory information
           ------------------

    heap     =   13107198 doubles =    100.0 Mbytes
    stack    =   13107195 doubles =    100.0 Mbytes
    global   =   26214400 doubles =    200.0 Mbytes (distinct from heap & stack)
    total    =   52428793 doubles =    400.0 Mbytes
    verify   = yes
    hardfail = no 


           Directory information
           ---------------------

  0 permanent = .
  0 scratch   = .




                                NWChem Input Module
                                -------------------


 Turning off AUTOSYM since
 SYMMETRY directive was detected!



                             Geometry "geometry" -> ""
                             -------------------------

 Output coordinates in a.u. (scale by  1.000000000 to convert to a.u.)

  No.       Tag          Charge          X              Y              Z
 ---- ---------------- ---------- -------------- -------------- --------------
    1 H                    1.0000     0.00000000     0.00000000    -0.64434600
    2 H                    1.0000     0.00000000     0.00000000     0.64434600

      Atomic Mass 
      ----------- 

      H                  1.007825


 Effective nuclear repulsion energy (a.u.)       0.7759806067

            Nuclear Dipole moment (a.u.) 
            ----------------------------
        X                 Y               Z
 ---------------- ---------------- ----------------
     0.0000000000     0.0000000000     0.0000000000

      Symmetry information
      --------------------

 Group name             Cs        
 Group number              2
 Group order               2
 No. of unique centers     1

      Symmetry unique atoms

     1


            XYZ format geometry
            -------------------
     2
 geometry
 H                     0.00000000     0.00000000    -0.34097324
 H                     0.00000000     0.00000000     0.34097324

 ==============================================================================
                                internuclear distances
 ------------------------------------------------------------------------------
       center one      |      center two      | atomic units |       a.u.
 ------------------------------------------------------------------------------
    2 H                |   1 H                |     1.28869  |     1.28869
 ------------------------------------------------------------------------------
                         number of included internuclear distances:          1
 ==============================================================================



                      Basis "ao basis" -> "" (cartesian)
                      -----
  H (Hydrogen)
  ------------
            Exponent  Coefficients 
       -------------- ---------------------------------------------------------
  1 S  1.87311370E+01  0.033495
  1 S  2.82539370E+00  0.234727
  1 S  6.40121700E-01  0.813757

  2 S  1.61277800E-01  1.000000

  3 P  1.10000000E+00  1.000000



 Summary of "ao basis" -> "" (cartesian)
 ------------------------------------------------------------------------------
       Tag                 Description            Shells   Functions and Types
 ---------------- ------------------------------  ------  ---------------------
 H                          6-31g**                  3        5   2s1p



                                NWChem WFN1 Module
                                ------------------



          No. of electrons :     2
           Alpha electrons :     1
            Beta electrons :     1
          Charge           :     0
          Spin multiplicity:     1

 HvD: wfn1_inpdft
 HvD: nquad_task =                     1
 HvD: iangquad   =                     0
 HvD: gridtype   = user      
 HvD: leb        =  T
 HvD: radgrid    = murakn    
 HvD: trunc_neigh=  T
 HvD: lssw       =  T
 HvD: whichssw   = erf1    
 HvD: mxnrad     =                     0
 HvD: mxnang     =                     0
 HVD: wfn1: movecs_in  = atomic                                                                                                                                                                                                                                                          
 HVD: wfn1: movecs_out = ./wfn1_dat.movecs                                                                                                                                                                                                                                               

      Superposition of Atomic Density Guess
      -------------------------------------

 Sum of atomic energies:          -0.99646508

      Non-variational initial energy
      ------------------------------

 Total energy =      -0.847656
 1-e energy   =      -2.281278
 2-e energy   =       0.657641
 HOMO         =      -0.613672
 LUMO         =       0.191377

 iteration              energy           error
 ---------              ------           -----
         0         -1.12814104        0.200000
         1         -1.12834504        0.200000
         2         -1.12838323        0.125992
         3         -1.12882006        0.092587
         4         -1.12882555        0.073487
         5         -1.12910614        0.073487
         6         -1.12916119        0.073487
         7         -1.12916180        0.068040
         8         -1.12916181        0.068040
         9         -1.12931615        0.058326
        10         -1.12940119        0.058326
        11         -1.12943024        0.054003
        12         -1.12945161        0.054003
        13         -1.12952924        0.046294
        14         -1.12956716        0.042862
        15         -1.12964914        0.042862
        16         -1.12972979        0.039685
        17         -1.12973425        0.034020
        18         -1.12982419        0.034020
        19         -1.12984159        0.029163
        20         -1.12984411        0.029163
        21         -1.12987718        0.023147
        22         -1.12988194        0.021431
        23         -1.12990439        0.019843
        24         -1.12991177        0.011573
        25         -1.12995078        0.011573
        26         -1.12996228        0.009921
        27         -1.12998662        0.009921
        28         -1.12999916        0.009921
        29         -1.13000378        0.007875
        30         -1.13000708        0.005787
        31         -1.13002527        0.004961
        32         -1.13005253        0.004252
        33         -1.13005951        0.003937
        34         -1.13006885        0.003937
        35         -1.13007446        0.002679
        36         -1.13007584        0.002679
        37         -1.13009434        0.001969
        38         -1.13010444        0.001563
        39         -1.13010485        0.001240
        40         -1.13010789        0.000422
        41         -1.13010820        0.000422
        42         -1.13011162        0.000362
        43         -1.13011338        0.000335
        44         -1.13011422        0.000228
        45         -1.13011527        0.000228
        46         -1.13012125        0.000211
        47         -1.13012624        0.000211
        48         -1.13012690        0.000195
        49         -1.13012739        0.000105
        50         -1.13013064        0.000084
        51         -1.13013094        0.000062
        52         -1.13013325        0.000049
        53         -1.13013709        0.000045
        54         -1.13013788        0.000024
        55         -1.13013827        0.000012
        56         -1.13013865        0.000007
        57         -1.13013866        0.000007
        58         -1.13014023        0.000006
        59         -1.13014027        0.000005
        60         -1.13014058        0.000004
        61         -1.13014091        0.000002
        62         -1.13014094        0.000002
        63         -1.13014106        0.000002
        64         -1.13014108        0.000002
        65         -1.13014113        0.000001

 Reached Convergence

 WFN1                     :
 --------------------------
 Total WFN1 energy  =          -1.1301411256
 1-Electron energy  =          -2.5775757306
 2-Electron energy  =           0.6738546075
 Correlation energy =          -0.0024006091
 DFT XC energy      =           0.0000000000
 Entropy energy     =           0.0000000000
 Nuclear energy     =           0.7759806067

 conventional Hartree-Fock:
 --------------------------
 Total SCF energy  =          -1.1295638068
 2-Electron energy =           0.6744319262

                WFN1 Final Natural orbital energies and occupations
                ---------------------------------------------------

              Alpha       Beta            Alpha       Beta  
            --------    --------        --------    --------
       1      0.0000      0.0000          0.9993      0.9993
       2      0.0000      0.0000          0.0004      0.0004
       3      0.0000      0.0000          0.0000      0.0000
       4      0.0000      0.0000          0.0001      0.0001
       5      0.0000      0.0000          0.0000      0.0000
       6      0.0000      0.0000          0.0001      0.0001
       7      0.0000      0.0000          0.0000      0.0000
       8      0.0000      0.0000          0.0000      0.0000
       9      0.0000      0.0000          0.0000      0.0000
      10      0.0000      0.0000          0.0000      0.0000

             WFN1 Final Correlation function energies and occupations
             --------------------------------------------------------

              Alpha       Beta            Alpha       Beta  
            --------    --------        --------    --------
       1      0.0000      0.0000          1.0000      1.0000
       2      0.0000      0.0000          0.0000      0.0000
       3      0.0000      0.0000          0.0000      0.0000
       4      0.0000      0.0000          0.0000      0.0000
       5      0.0000      0.0000          0.0000      0.0000
       6      0.0000      0.0000          0.0000      0.0000
       7      0.0000      0.0000          0.0000      0.0000
       8      0.0000      0.0000          0.0000      0.0000
       9      0.0000      0.0000          0.0000      0.0000
      10      0.0000      0.0000          0.0000      0.0000

                WFN1 Final alpha-alpha 2-matrix occupation numbers
                --------------------------------------------------


 global array: g_momo1[1:10,1:10],  handle: -990 

            1           2           3           4           5           6  
       ----------- ----------- ----------- ----------- ----------- -----------
   1      -0.00000     0.00000    -0.00000     0.00000     0.00000    -0.00000
   2       0.00000     0.00000    -0.00000     0.00000     0.00000     0.00000
   3      -0.00000     0.00000     0.00000     0.00000     0.00000     0.00000
   4      -0.00000     0.00000     0.00000     0.00000     0.00000     0.00000
   5      -0.00000     0.00000     0.00000     0.00000     0.00000    -0.00000
   6       0.00000     0.00000     0.00000     0.00000     0.00000     0.00000
   7      -0.00000     0.00000     0.00000     0.00000     0.00000    -0.00000
   8      -0.00000     0.00000    -0.00000     0.00000     0.00000     0.00000
   9       0.00000     0.00000     0.00000     0.00000     0.00000    -0.00000
  10       0.00000     0.00000     0.00000    -0.00000     0.00000     0.00000

            7           8           9          10  
       ----------- ----------- ----------- -----------
   1       0.00000    -0.00000     0.00000    -0.00000
   2       0.00000     0.00000     0.00000    -0.00000
   3       0.00000     0.00000     0.00000     0.00000
   4       0.00000     0.00000     0.00000    -0.00000
   5       0.00000     0.00000     0.00000     0.00000
   6       0.00000     0.00000     0.00000     0.00000
   7       0.00000     0.00000     0.00000    -0.00000
   8       0.00000    -0.00000     0.00000     0.00000
   9       0.00000     0.00000     0.00000     0.00000
  10       0.00000     0.00000     0.00000     0.00000

                 WFN1 Final beta-beta 2-matrix occupation numbers
                 ------------------------------------------------


 global array: g_momo2[1:10,1:10],  handle: -989 

            1           2           3           4           5           6  
       ----------- ----------- ----------- ----------- ----------- -----------
   1      -0.00000     0.00000    -0.00000     0.00000     0.00000    -0.00000
   2       0.00000     0.00000    -0.00000     0.00000     0.00000     0.00000
   3      -0.00000     0.00000     0.00000     0.00000     0.00000     0.00000
   4      -0.00000     0.00000     0.00000     0.00000     0.00000     0.00000
   5      -0.00000     0.00000     0.00000     0.00000     0.00000    -0.00000
   6       0.00000     0.00000     0.00000     0.00000     0.00000     0.00000
   7      -0.00000     0.00000     0.00000     0.00000     0.00000    -0.00000
   8      -0.00000     0.00000    -0.00000     0.00000     0.00000     0.00000
   9       0.00000     0.00000     0.00000     0.00000     0.00000    -0.00000
  10       0.00000     0.00000     0.00000    -0.00000     0.00000     0.00000

            7           8           9          10  
       ----------- ----------- ----------- -----------
   1       0.00000    -0.00000     0.00000    -0.00000
   2       0.00000     0.00000     0.00000    -0.00000
   3       0.00000     0.00000     0.00000     0.00000
   4       0.00000     0.00000     0.00000    -0.00000
   5       0.00000     0.00000     0.00000     0.00000
   6       0.00000     0.00000     0.00000     0.00000
   7       0.00000     0.00000     0.00000    -0.00000
   8       0.00000    -0.00000     0.00000     0.00000
   9       0.00000     0.00000     0.00000     0.00000
  10       0.00000     0.00000     0.00000     0.00000

                  WFN1 Final alpha Correlation Function Analysis
                  ----------------------------------------------


 global array: Ca[1:10,1:10],  handle: -977 

                     1                       2                       3                       4                       5                       6  
       ----------------------- ----------------------- ----------------------- ----------------------- ----------------------- -----------------------
   1      -0.89365,    0.44800     0.01745,   -0.01178    -0.00052,    0.00678     0.01024,    0.00122     0.00208,    0.00370    -0.00324,   -0.00395
   2       0.01650,   -0.01327     0.67302,   -0.73424    -0.06135,    0.05153    -0.00585,    0.00421    -0.01145,   -0.00378    -0.00123,   -0.00752
   3       0.00088,   -0.00595     0.07194,    0.03361     0.84045,    0.53180    -0.04318,   -0.03629    -0.01152,    0.01429     0.01000,    0.01218
   4      -0.00116,   -0.01005     0.00372,   -0.00999     0.01658,   -0.05242     0.45003,   -0.88660    -0.03711,    0.07726    -0.00428,   -0.00250
   5      -0.00000,   -0.00000     0.00880,   -0.00595    -0.01679,    0.00590     0.03973,    0.04614     0.43550,    0.55172     0.43896,    0.55566
   6       0.00438,   -0.00563     0.00901,    0.00142     0.00907,    0.01465     0.05214,    0.02937     0.63862,    0.29930    -0.63884,   -0.29978
   7      -0.00231,   -0.00417    -0.01605,    0.00032    -0.00530,   -0.01612    -0.00046,   -0.01117     0.00603,   -0.01379     0.00553,    0.00508
   8       0.00000,    0.00000     0.02221,    0.00192     0.01081,   -0.00551     0.00452,    0.00223    -0.01197,    0.00264    -0.00562,    0.00024
   9       0.00185,    0.00249    -0.00353,   -0.00331     0.01082,    0.00479     0.01904,    0.00174     0.01270,    0.00723    -0.01060,    0.00005
  10      -0.00119,    0.00311     0.00520,    0.00912     0.00041,    0.01250    -0.01182,    0.01120    -0.00340,   -0.00964     0.00009,   -0.00240

                     7                       8                       9                      10  
       ----------------------- ----------------------- ----------------------- -----------------------
   1      -0.00042,   -0.00503    -0.00120,    0.00007     0.00133,    0.00162     0.00021,    0.00303
   2      -0.01351,   -0.00085     0.00187,   -0.02032    -0.00038,   -0.01151     0.00500,   -0.00818
   3      -0.01191,    0.00952     0.00954,    0.00065     0.01553,   -0.00222     0.01240,   -0.00115
   4       0.00793,    0.01031    -0.00342,    0.00457    -0.00593,   -0.01626    -0.01449,   -0.00951
   5      -0.00658,    0.00932    -0.00904,   -0.00424    -0.00582,   -0.00540    -0.00746,   -0.00431
   6      -0.01346,    0.01347    -0.00924,   -0.00018     0.00850,   -0.00615    -0.00507,   -0.00191
   7      -0.87564,   -0.10567     0.46538,    0.06347     0.00011,    0.00251    -0.00395,   -0.02217
   8      -0.22595,    0.24176    -0.43181,    0.44417    -0.49818,    0.50752     0.00424,    0.01123
   9       0.26273,   -0.20531     0.49837,   -0.38252    -0.56028,    0.42347    -0.00108,    0.00422
  10       0.01653,   -0.00623    -0.01252,    0.00833    -0.00324,    0.01133    -0.64978,   -0.75925

                   WFN1 Final beta Correlation Function Analysis
                   ---------------------------------------------


 global array: Cb[1:10,1:10],  handle: -976 

                     1                       2                       3                       4                       5                       6  
       ----------------------- ----------------------- ----------------------- ----------------------- ----------------------- -----------------------
   1      -0.89365,    0.44800     0.01745,   -0.01178    -0.00052,    0.00678     0.01024,    0.00122     0.00208,    0.00370    -0.00324,   -0.00395
   2       0.01650,   -0.01327     0.67302,   -0.73424    -0.06135,    0.05153    -0.00585,    0.00421    -0.01145,   -0.00378    -0.00123,   -0.00752
   3       0.00088,   -0.00595     0.07194,    0.03361     0.84045,    0.53180    -0.04318,   -0.03629    -0.01152,    0.01429     0.01000,    0.01218
   4      -0.00116,   -0.01005     0.00372,   -0.00999     0.01658,   -0.05242     0.45003,   -0.88660    -0.03711,    0.07726    -0.00428,   -0.00250
   5      -0.00000,   -0.00000     0.00880,   -0.00595    -0.01679,    0.00590     0.03973,    0.04614     0.43550,    0.55172     0.43896,    0.55566
   6       0.00438,   -0.00563     0.00901,    0.00142     0.00907,    0.01465     0.05214,    0.02937     0.63862,    0.29930    -0.63884,   -0.29978
   7      -0.00231,   -0.00417    -0.01605,    0.00032    -0.00530,   -0.01612    -0.00046,   -0.01117     0.00603,   -0.01379     0.00553,    0.00508
   8       0.00000,    0.00000     0.02221,    0.00192     0.01081,   -0.00551     0.00452,    0.00223    -0.01197,    0.00264    -0.00562,    0.00024
   9       0.00185,    0.00249    -0.00353,   -0.00331     0.01082,    0.00479     0.01904,    0.00174     0.01270,    0.00723    -0.01060,    0.00005
  10      -0.00119,    0.00311     0.00520,    0.00912     0.00041,    0.01250    -0.01182,    0.01120    -0.00340,   -0.00964     0.00009,   -0.00240

                     7                       8                       9                      10  
       ----------------------- ----------------------- ----------------------- -----------------------
   1      -0.00042,   -0.00503    -0.00120,    0.00007     0.00133,    0.00162     0.00021,    0.00303
   2      -0.01351,   -0.00085     0.00187,   -0.02032    -0.00038,   -0.01151     0.00500,   -0.00818
   3      -0.01191,    0.00952     0.00954,    0.00065     0.01553,   -0.00222     0.01240,   -0.00115
   4       0.00793,    0.01031    -0.00342,    0.00457    -0.00593,   -0.01626    -0.01449,   -0.00951
   5      -0.00658,    0.00932    -0.00904,   -0.00424    -0.00582,   -0.00540    -0.00746,   -0.00431
   6      -0.01346,    0.01347    -0.00924,   -0.00018     0.00850,   -0.00615    -0.00507,   -0.00191
   7      -0.87564,   -0.10567     0.46538,    0.06347     0.00011,    0.00251    -0.00395,   -0.02217
   8      -0.22595,    0.24176    -0.43181,    0.44417    -0.49818,    0.50752     0.00424,    0.01123
   9       0.26273,   -0.20531     0.49837,   -0.38252    -0.56028,    0.42347    -0.00108,    0.00422
  10       0.01653,   -0.00623    -0.01252,    0.00833    -0.00324,    0.01133    -0.64978,   -0.75925

                     WFN1 Final Alpha Natural Orbital Analysis
                     -----------------------------------------

 Vector    1  Occ=9.993191D-01  E= 0.000000D+00
              MO Center= -7.4D-04, -8.1D-04, -5.8D-03, r^2= 6.9D-01
   Bfn.  Coefficient  Atom+Function         Bfn.  Coefficient  Atom+Function  
  ----- ------------  ---------------      ----- ------------  ---------------
     6      0.325085  2 H  s                  1      0.322254  1 H  s          
     2      0.274397  1 H  s                  7      0.254958  2 H  s          

 Vector    2  Occ=4.481211D-04  E= 0.000000D+00
              MO Center= -4.0D-04, -3.1D-04,  8.3D-03, r^2= 2.0D+00
   Bfn.  Coefficient  Atom+Function         Bfn.  Coefficient  Atom+Function  
  ----- ------------  ---------------      ----- ------------  ---------------
     2      1.813860  1 H  s                  7     -1.812980  2 H  s          
     6     -0.142618  2 H  s                  1      0.131847  1 H  s          
    10     -0.025819  2 H  pz         

 Vector    3  Occ=3.615124D-05  E= 0.000000D+00
              MO Center= -1.2D-04, -4.0D-05, -9.9D-04, r^2= 1.6D+00
   Bfn.  Coefficient  Atom+Function         Bfn.  Coefficient  Atom+Function  
  ----- ------------  ---------------      ----- ------------  ---------------
     1      0.734386  1 H  s                  6      0.720611  2 H  s          
     2     -0.675672  1 H  s                  7     -0.673338  2 H  s          
     5      0.029493  1 H  pz         

 Vector    4  Occ=1.022774D-04  E= 0.000000D+00
              MO Center= -1.9D-03,  2.7D-03, -4.9D-03, r^2= 1.2D+00
   Bfn.  Coefficient  Atom+Function         Bfn.  Coefficient  Atom+Function  
  ----- ------------  ---------------      ----- ------------  ---------------
     2     -1.515215  1 H  s                  7      1.514046  2 H  s          
     1      0.833467  1 H  s                  6     -0.829276  2 H  s          
     5     -0.335536  1 H  pz                10     -0.323922  2 H  pz         

 Vector    5  Occ=1.293001D-17  E= 0.000000D+00
              MO Center=  8.8D-04,  1.6D-04, -9.5D-04, r^2= 4.0D-01
   Bfn.  Coefficient  Atom+Function         Bfn.  Coefficient  Atom+Function  
  ----- ------------  ---------------      ----- ------------  ---------------
     3      0.591949  1 H  px                 8      0.586776  2 H  px         
     9      0.105526  2 H  py                 4      0.088829  1 H  py         

 Vector    6  Occ=5.094436D-05  E= 0.000000D+00
              MO Center= -9.9D-05,  5.6D-04,  3.0D-03, r^2= 4.0D-01
   Bfn.  Coefficient  Atom+Function         Bfn.  Coefficient  Atom+Function  
  ----- ------------  ---------------      ----- ------------  ---------------
     9     -0.593252  2 H  py                 4     -0.585159  1 H  py         
     3      0.100247  1 H  px                 8      0.094238  2 H  px         
     1     -0.047192  1 H  s                 10     -0.046285  2 H  pz         
     6      0.041174  2 H  s                  5     -0.040054  1 H  pz         

 Vector    7  Occ=2.272962D-05  E= 0.000000D+00
              MO Center=  8.3D-05,  1.6D-04, -1.6D-03, r^2= 5.5D-01
   Bfn.  Coefficient  Atom+Function         Bfn.  Coefficient  Atom+Function  
  ----- ------------  ---------------      ----- ------------  ---------------
     5      0.681538  1 H  pz                10     -0.664053  2 H  pz         
     6     -0.415387  2 H  s                  1     -0.378253  1 H  s          
     7      0.220836  2 H  s                  2      0.166912  1 H  s          

 Vector    8  Occ=7.382096D-16  E= 0.000000D+00
              MO Center=  3.5D-04, -1.4D-03, -2.0D-03, r^2= 5.1D-01
   Bfn.  Coefficient  Atom+Function         Bfn.  Coefficient  Atom+Function  
  ----- ------------  ---------------      ----- ------------  ---------------
     4     -0.889612  1 H  py                 9      0.883913  2 H  py         
     8     -0.224966  2 H  px                 3      0.214357  1 H  px         
     5     -0.028186  1 H  pz         

 Vector    9  Occ=9.629884D-06  E= 0.000000D+00
              MO Center=  1.6D-03,  4.1D-04,  1.5D-04, r^2= 5.1D-01
   Bfn.  Coefficient  Atom+Function         Bfn.  Coefficient  Atom+Function  
  ----- ------------  ---------------      ----- ------------  ---------------
     3     -0.886068  1 H  px                 8      0.887599  2 H  px         
     4     -0.222226  1 H  py                 9      0.217394  2 H  py         

 Vector   10  Occ=1.108073D-05  E= 0.000000D+00
              MO Center=  2.9D-04, -1.4D-03,  4.9D-03, r^2= 5.0D-01
   Bfn.  Coefficient  Atom+Function         Bfn.  Coefficient  Atom+Function  
  ----- ------------  ---------------      ----- ------------  ---------------
     1     -1.923919  1 H  s                  6      1.922128  2 H  s          
     5     -1.759797  1 H  pz                10     -1.768563  2 H  pz         
     2     -0.095910  1 H  s                  7      0.093957  2 H  s          


                     WFN1 Final Beta Natural Orbital Analysis
                     ----------------------------------------

 Vector    1  Occ=9.993191D-01  E= 0.000000D+00
              MO Center= -7.4D-04, -8.1D-04, -5.8D-03, r^2= 6.9D-01
   Bfn.  Coefficient  Atom+Function         Bfn.  Coefficient  Atom+Function  
  ----- ------------  ---------------      ----- ------------  ---------------
     6      0.325085  2 H  s                  1      0.322254  1 H  s          
     2      0.274397  1 H  s                  7      0.254958  2 H  s          

 Vector    2  Occ=4.481211D-04  E= 0.000000D+00
              MO Center= -4.0D-04, -3.1D-04,  8.3D-03, r^2= 2.0D+00
   Bfn.  Coefficient  Atom+Function         Bfn.  Coefficient  Atom+Function  
  ----- ------------  ---------------      ----- ------------  ---------------
     2      1.813860  1 H  s                  7     -1.812980  2 H  s          
     6     -0.142618  2 H  s                  1      0.131847  1 H  s          
    10     -0.025819  2 H  pz         

 Vector    3  Occ=3.615124D-05  E= 0.000000D+00
              MO Center= -1.2D-04, -4.0D-05, -9.9D-04, r^2= 1.6D+00
   Bfn.  Coefficient  Atom+Function         Bfn.  Coefficient  Atom+Function  
  ----- ------------  ---------------      ----- ------------  ---------------
     1      0.734386  1 H  s                  6      0.720611  2 H  s          
     2     -0.675672  1 H  s                  7     -0.673338  2 H  s          
     5      0.029493  1 H  pz         

 Vector    4  Occ=1.022774D-04  E= 0.000000D+00
              MO Center= -1.9D-03,  2.7D-03, -4.9D-03, r^2= 1.2D+00
   Bfn.  Coefficient  Atom+Function         Bfn.  Coefficient  Atom+Function  
  ----- ------------  ---------------      ----- ------------  ---------------
     2     -1.515215  1 H  s                  7      1.514046  2 H  s          
     1      0.833467  1 H  s                  6     -0.829276  2 H  s          
     5     -0.335536  1 H  pz                10     -0.323922  2 H  pz         

 Vector    5  Occ=1.293001D-17  E= 0.000000D+00
              MO Center=  8.8D-04,  1.6D-04, -9.5D-04, r^2= 4.0D-01
   Bfn.  Coefficient  Atom+Function         Bfn.  Coefficient  Atom+Function  
  ----- ------------  ---------------      ----- ------------  ---------------
     3      0.591949  1 H  px                 8      0.586776  2 H  px         
     9      0.105526  2 H  py                 4      0.088829  1 H  py         

 Vector    6  Occ=5.094436D-05  E= 0.000000D+00
              MO Center= -9.9D-05,  5.6D-04,  3.0D-03, r^2= 4.0D-01
   Bfn.  Coefficient  Atom+Function         Bfn.  Coefficient  Atom+Function  
  ----- ------------  ---------------      ----- ------------  ---------------
     9     -0.593252  2 H  py                 4     -0.585159  1 H  py         
     3      0.100247  1 H  px                 8      0.094238  2 H  px         
     1     -0.047192  1 H  s                 10     -0.046285  2 H  pz         
     6      0.041174  2 H  s                  5     -0.040054  1 H  pz         

 Vector    7  Occ=2.272962D-05  E= 0.000000D+00
              MO Center=  8.3D-05,  1.6D-04, -1.6D-03, r^2= 5.5D-01
   Bfn.  Coefficient  Atom+Function         Bfn.  Coefficient  Atom+Function  
  ----- ------------  ---------------      ----- ------------  ---------------
     5      0.681538  1 H  pz                10     -0.664053  2 H  pz         
     6     -0.415387  2 H  s                  1     -0.378253  1 H  s          
     7      0.220836  2 H  s                  2      0.166912  1 H  s          

 Vector    8  Occ=7.382096D-16  E= 0.000000D+00
              MO Center=  3.5D-04, -1.4D-03, -2.0D-03, r^2= 5.1D-01
   Bfn.  Coefficient  Atom+Function         Bfn.  Coefficient  Atom+Function  
  ----- ------------  ---------------      ----- ------------  ---------------
     4     -0.889612  1 H  py                 9      0.883913  2 H  py         
     8     -0.224966  2 H  px                 3      0.214357  1 H  px         
     5     -0.028186  1 H  pz         

 Vector    9  Occ=9.629884D-06  E= 0.000000D+00
              MO Center=  1.6D-03,  4.1D-04,  1.5D-04, r^2= 5.1D-01
   Bfn.  Coefficient  Atom+Function         Bfn.  Coefficient  Atom+Function  
  ----- ------------  ---------------      ----- ------------  ---------------
     3     -0.886068  1 H  px                 8      0.887599  2 H  px         
     4     -0.222226  1 H  py                 9      0.217394  2 H  py         

 Vector   10  Occ=1.108073D-05  E= 0.000000D+00
              MO Center=  2.9D-04, -1.4D-03,  4.9D-03, r^2= 5.0D-01
   Bfn.  Coefficient  Atom+Function         Bfn.  Coefficient  Atom+Function  
  ----- ------------  ---------------      ----- ------------  ---------------
     1     -1.923919  1 H  s                  6      1.922128  2 H  s          
     5     -1.759797  1 H  pz                10     -1.768563  2 H  pz         
     2     -0.095910  1 H  s                  7      0.093957  2 H  s          


 Task  times  cpu:      153.1s     wall:      177.8s
 Summary of allocated global arrays
-----------------------------------
  No active global arrays



                         GA Statistics for process    0
                         ------------------------------

       create   destroy   get      put      acc     scatter   gather  read&inc
calls:   44       44     5.51e+07 2.52e+04 3.16e+04    0        0       11     
number of processes/call 1.00e+00 1.00e+00 1.00e+00 0.00e+00 0.00e+00
bytes total:             4.41e+10 2.53e+07 3.14e+07 0.00e+00 0.00e+00 8.80e+01
bytes remote:            0.00e+00 0.00e+00 0.00e+00 0.00e+00 0.00e+00 0.00e+00
Max memory consumed for GA by this process: 268000 bytes
MA_summarize_allocated_blocks: starting scan ...
MA_summarize_allocated_blocks: scan completed: 0 heap blocks, 0 stack blocks
MA usage statistics:

	allocation statistics:
					      heap	     stack
					      ----	     -----
	current number of blocks	         0	         0
	maximum number of blocks	        19	        17
	current total bytes		         0	         0
	maximum total bytes		   3205432	  22508664
	maximum total K-bytes		      3206	     22509
	maximum total M-bytes		         4	        23


                                NWChem Input Module
                                -------------------





                                     CITATION
                                     --------
                Please cite the following reference when publishing
                           results obtained with NWChem:

                 M. Valiev, E.J. Bylaska, N. Govind, K. Kowalski,
              T.P. Straatsma, H.J.J. van Dam, D. Wang, J. Nieplocha,
                        E. Apra, T.L. Windus, W.A. de Jong
                 "NWChem: a comprehensive and scalable open-source
                  solution for large scale molecular simulations"
                      Comput. Phys. Commun. 181, 1477 (2010)
                           doi:10.1016/j.cpc.2010.04.018

                                      AUTHORS
                                      -------
          E. Apra, E. J. Bylaska, W. A. de Jong, N. Govind, K. Kowalski,
       T. P. Straatsma, M. Valiev, H. J. J. van Dam, D. Wang, T. L. Windus,
        J. Hammond, J. Autschbach, K. Bhaskaran-Nair, J. Brabec, K. Lopata,
    S. A. Fischer, S. Krishnamoorthy, M. Jacquelin, W. Ma, M. Klemm, O. Villa,
      Y. Chen, V. Anisimov, F. Aquino, S. Hirata, M. T. Hackler, V. Konjkov,
      T. Risthaus, M. Malagoli, A. Marenich, A. Otero-de-la-Roza, J. Mullin,
        P. Nichols, R. Peverati, J. Pittner, Y. Zhao, P.-D. Fan, A. Fonari,
       M. Williamson, R. J. Harrison, J. R. Rehr, M. Dupuis, D. Silverstein,
    D. M. A. Smith, J. Nieplocha, V. Tipparaju, M. Krishnan, B. E. Van Kuiken,
        A. Vazquez-Mayagoitia, L. Jensen, M. Swart, Q. Wu, T. Van Voorhis,
     A. A. Auer, M. Nooijen, L. D. Crosby, E. Brown, G. Cisneros, G. I. Fann,
   H. Fruchtl, J. Garza, K. Hirao, R. A. Kendall, J. A. Nichols, K. Tsemekhman,
    K. Wolinski, J. Anchell, D. E. Bernholdt, P. Borowski, T. Clark, D. Clerc,
   H. Dachsel, M. J. O. Deegan, K. Dyall, D. Elwood, E. Glendening, M. Gutowski,
   A. C. Hess, J. Jaffe, B. G. Johnson, J. Ju, R. Kobayashi, R. Kutteh, Z. Lin,
   R. Littlefield, X. Long, B. Meng, T. Nakajima, S. Niu, L. Pollack, M. Rosing,
   K. Glaesemann, G. Sandrone, M. Stave, H. Taylor, G. Thomas, J. H. van Lenthe,
                               A. T. Wong, Z. Zhang.

 Total times  cpu:      153.1s     wall:      177.8s
