 argument  1 = input-wf.nw



============================== echo of input deck ==============================
echo
start wfn1_dat
geometry units au noautoz
  H 0 0 -.59434600000000000000
  H 0 0  .59434600000000000000
  symmetry cs
end
basis
  H library 6-31g**
end
set wfn1:input_vectors "atomic"
set wfn1:solver "monte-carlo"
set wfn1:print_error F
set wfn1:t_initial 0.1
#set wfn1:corr_expr "wfn1_mx"
set wfn1:corr_expr "wfn1c"
set wfn1:t_bath 0.0
set wfn1:maxit  20000
task wfn1 energy
================================================================================


                                         
                                         


              Northwest Computational Chemistry Package (NWChem) 6.8
              ------------------------------------------------------


                    Environmental Molecular Sciences Laboratory
                       Pacific Northwest National Laboratory
                                Richland, WA 99352

                              Copyright (c) 1994-2015
                       Pacific Northwest National Laboratory
                            Battelle Memorial Institute

             NWChem is an open-source computational chemistry package
                        distributed under the terms of the
                      Educational Community License (ECL) 2.0
             A copy of the license is included with this distribution
                              in the LICENSE.TXT file

                                  ACKNOWLEDGMENT
                                  --------------

            This software and its documentation were developed at the
            EMSL at Pacific Northwest National Laboratory, a multiprogram
            national laboratory, operated for the U.S. Department of Energy
            by Battelle under Contract Number DE-AC05-76RL01830. Support
            for this work was provided by the Department of Energy Office
            of Biological and Environmental Research, Office of Basic
            Energy Sciences, and the Office of Advanced Scientific Computing.


           Job information
           ---------------

    hostname        = erato
    program         = ../../../bin/LINUX64/nwchem
    date            = Mon Mar  1 09:53:14 2021

    compiled        = Sun_Feb_28_18:02:42_2021
    source          = /home/hvandam/nwchem-1-wfn1
    nwchem branch   = Development
    nwchem revision = nwchem_on_git-124-gad72d19fff205e319ffbbf2bca37a04ded6ad57b
    ga revision     = nwchem_on_git-124-gad72d19
    use scalapack   = F
    input           = input-wf.nw
    prefix          = wfn1_dat.
    data base       = ./wfn1_dat.db
    status          = startup
    nproc           =        1
    time left       =     -1s



           Memory information
           ------------------

    heap     =   13107198 doubles =    100.0 Mbytes
    stack    =   13107195 doubles =    100.0 Mbytes
    global   =   26214400 doubles =    200.0 Mbytes (distinct from heap & stack)
    total    =   52428793 doubles =    400.0 Mbytes
    verify   = yes
    hardfail = no 


           Directory information
           ---------------------

  0 permanent = .
  0 scratch   = .




                                NWChem Input Module
                                -------------------


 Turning off AUTOSYM since
 SYMMETRY directive was detected!



                             Geometry "geometry" -> ""
                             -------------------------

 Output coordinates in a.u. (scale by  1.000000000 to convert to a.u.)

  No.       Tag          Charge          X              Y              Z
 ---- ---------------- ---------- -------------- -------------- --------------
    1 H                    1.0000     0.00000000     0.00000000    -0.59434600
    2 H                    1.0000     0.00000000     0.00000000     0.59434600

      Atomic Mass 
      ----------- 

      H                  1.007825


 Effective nuclear repulsion energy (a.u.)       0.8412608144

            Nuclear Dipole moment (a.u.) 
            ----------------------------
        X                 Y               Z
 ---------------- ---------------- ----------------
     0.0000000000     0.0000000000     0.0000000000

      Symmetry information
      --------------------

 Group name             Cs        
 Group number              2
 Group order               2
 No. of unique centers     1

      Symmetry unique atoms

     1


            XYZ format geometry
            -------------------
     2
 geometry
 H                     0.00000000     0.00000000    -0.31451438
 H                     0.00000000     0.00000000     0.31451438

 ==============================================================================
                                internuclear distances
 ------------------------------------------------------------------------------
       center one      |      center two      | atomic units |       a.u.
 ------------------------------------------------------------------------------
    2 H                |   1 H                |     1.18869  |     1.18869
 ------------------------------------------------------------------------------
                         number of included internuclear distances:          1
 ==============================================================================



                      Basis "ao basis" -> "" (cartesian)
                      -----
  H (Hydrogen)
  ------------
            Exponent  Coefficients 
       -------------- ---------------------------------------------------------
  1 S  1.87311370E+01  0.033495
  1 S  2.82539370E+00  0.234727
  1 S  6.40121700E-01  0.813757

  2 S  1.61277800E-01  1.000000

  3 P  1.10000000E+00  1.000000



 Summary of "ao basis" -> "" (cartesian)
 ------------------------------------------------------------------------------
       Tag                 Description            Shells   Functions and Types
 ---------------- ------------------------------  ------  ---------------------
 H                          6-31g**                  3        5   2s1p



                                NWChem WFN1 Module
                                ------------------



          No. of electrons :     2
           Alpha electrons :     1
            Beta electrons :     1
          Charge           :     0
          Spin multiplicity:     1

 HvD: wfn1_inpdft
 HvD: nquad_task =                     1
 HvD: iangquad   =                     0
 HvD: gridtype   = user      
 HvD: leb        =  T
 HvD: radgrid    = murakn    
 HvD: trunc_neigh=  T
 HvD: lssw       =  T
 HvD: whichssw   = erf1    
 HvD: mxnrad     =                     0
 HvD: mxnang     =                     0
 HVD: wfn1: movecs_in  = atomic                                                                                                                                                                                                                                                          
 HVD: wfn1: movecs_out = ./wfn1_dat.movecs                                                                                                                                                                                                                                               

      Superposition of Atomic Density Guess
      -------------------------------------

 Sum of atomic energies:          -0.99646508

      Non-variational initial energy
      ------------------------------

 Total energy =      -0.842137
 1-e energy   =      -2.339841
 2-e energy   =       0.656443
 HOMO         =      -0.643312
 LUMO         =       0.205291

 iteration              energy           error
 ---------              ------           -----
         0         -1.12017178        0.200000
         1         -1.12035414        0.200000
         2         -1.12053642        0.185175
         3         -1.12055004        0.136079
         4         -1.12089931        0.136079
         5         -1.12092745        0.136079
         6         -1.12130482        0.100000
         7         -1.12140439        0.100000
         8         -1.12145457        0.085724
         9         -1.12149846        0.079370
        10         -1.12171555        0.054003
        11         -1.12175857        0.050000
        12         -1.12176799        0.050000
        13         -1.12183050        0.050000
        14         -1.12184615        0.031498
        15         -1.12185229        0.031498
        16         -1.12187092        0.031498
        17         -1.12200382        0.031498
        18         -1.12203707        0.029163
        19         -1.12221284        0.027001
        20         -1.12222735        0.025000
        21         -1.12224485        0.025000
        22         -1.12225834        0.012500
        23         -1.12227437        0.012500
        24         -1.12229038        0.010716
        25         -1.12229673        0.008505
        26         -1.12234280        0.006250
        27         -1.12234431        0.004961
        28         -1.12235953        0.002480
        29         -1.12238052        0.002296
        30         -1.12238239        0.002126
        31         -1.12238494        0.002126
        32         -1.12240122        0.002126
        33         -1.12240265        0.000781
        34         -1.12240290        0.000456
        35         -1.12240915        0.000456
        36         -1.12240986        0.000287
        37         -1.12241115        0.000287
        38         -1.12241191        0.000195
        39         -1.12241234        0.000181
        40         -1.12241237        0.000133
        41         -1.12241352        0.000114
        42         -1.12241598        0.000057
        43         -1.12241662        0.000053
        44         -1.12241666        0.000053
        45         -1.12241711        0.000049
        46         -1.12241748        0.000049
        47         -1.12241792        0.000045
        48         -1.12241826        0.000042
        49         -1.12241937        0.000042
        50         -1.12242091        0.000042
        51         -1.12242148        0.000039
        52         -1.12242151        0.000024
        53         -1.12242267        0.000021
        54         -1.12242490        0.000019
        55         -1.12242576        0.000013
        56         -1.12242634        0.000007
        57         -1.12242663        0.000007
        58         -1.12242694        0.000003
        59         -1.12242723        0.000002
        60         -1.12242728        0.000001
        61         -1.12242760        0.000001

 Reached Convergence

 WFN1                     :
 --------------------------
 Total WFN1 energy  =          -1.1224275975
 1-Electron energy  =          -2.6589894608
 2-Electron energy  =           0.6982799890
 Correlation energy =          -0.0029789401
 DFT XC energy      =           0.0000000000
 Entropy energy     =           0.0000000000
 Nuclear energy     =           0.8412608144

 conventional Hartree-Fock:
 --------------------------
 Total SCF energy  =          -1.1218108943
 2-Electron energy =           0.6988966921

                WFN1 Final Natural orbital energies and occupations
                ---------------------------------------------------

              Alpha       Beta            Alpha       Beta  
            --------    --------        --------    --------
       1      0.0000      0.0000          0.9994      0.9994
       2      0.0000      0.0000          0.0001      0.0001
       3      0.0000      0.0000          0.0000      0.0000
       4      0.0000      0.0000          0.0002      0.0002
       5      0.0000      0.0000          0.0000      0.0000
       6      0.0000      0.0000          0.0001      0.0001
       7      0.0000      0.0000          0.0000      0.0000
       8      0.0000      0.0000          0.0000      0.0000
       9      0.0000      0.0000          0.0000      0.0000
      10      0.0000      0.0000          0.0000      0.0000

             WFN1 Final Correlation function energies and occupations
             --------------------------------------------------------

              Alpha       Beta            Alpha       Beta  
            --------    --------        --------    --------
       1      0.0000      0.0000          1.0000      1.0000
       2      0.0000      0.0000          0.0000      0.0000
       3      0.0000      0.0000          0.0000      0.0000
       4      0.0000      0.0000          0.0000      0.0000
       5      0.0000      0.0000          0.0000      0.0000
       6      0.0000      0.0000          0.0000      0.0000
       7      0.0000      0.0000          0.0000      0.0000
       8      0.0000      0.0000          0.0000      0.0000
       9      0.0000      0.0000          0.0000      0.0000
      10      0.0000      0.0000          0.0000      0.0000

                WFN1 Final alpha-alpha 2-matrix occupation numbers
                --------------------------------------------------


 global array: g_momo1[1:10,1:10],  handle: -990 

            1           2           3           4           5           6  
       ----------- ----------- ----------- ----------- ----------- -----------
   1       0.00000     0.00000     0.00000     0.00000     0.00000     0.00000
   2       0.00000     0.00000    -0.00000    -0.00000     0.00000     0.00000
   3       0.00000     0.00000    -0.00000     0.00000     0.00000     0.00000
   4       0.00000     0.00000     0.00000     0.00000     0.00000    -0.00000
   5       0.00000     0.00000    -0.00000     0.00000    -0.00000     0.00000
   6       0.00000     0.00000     0.00000     0.00000     0.00000     0.00000
   7       0.00000     0.00000     0.00000    -0.00000     0.00000     0.00000
   8       0.00000     0.00000     0.00000     0.00000     0.00000     0.00000
   9       0.00000     0.00000     0.00000     0.00000    -0.00000     0.00000
  10       0.00000     0.00000     0.00000     0.00000    -0.00000     0.00000

            7           8           9          10  
       ----------- ----------- ----------- -----------
   1       0.00000     0.00000    -0.00000     0.00000
   2       0.00000     0.00000     0.00000     0.00000
   3       0.00000     0.00000     0.00000     0.00000
   4      -0.00000     0.00000     0.00000    -0.00000
   5       0.00000     0.00000     0.00000     0.00000
   6       0.00000     0.00000     0.00000     0.00000
   7      -0.00000     0.00000     0.00000     0.00000
   8       0.00000     0.00000     0.00000     0.00000
   9       0.00000     0.00000    -0.00000    -0.00000
  10       0.00000     0.00000    -0.00000     0.00000

                 WFN1 Final beta-beta 2-matrix occupation numbers
                 ------------------------------------------------


 global array: g_momo2[1:10,1:10],  handle: -989 

            1           2           3           4           5           6  
       ----------- ----------- ----------- ----------- ----------- -----------
   1       0.00000     0.00000     0.00000     0.00000     0.00000     0.00000
   2       0.00000     0.00000    -0.00000    -0.00000     0.00000     0.00000
   3       0.00000     0.00000    -0.00000     0.00000     0.00000     0.00000
   4       0.00000     0.00000     0.00000     0.00000     0.00000    -0.00000
   5       0.00000     0.00000    -0.00000     0.00000    -0.00000     0.00000
   6       0.00000     0.00000     0.00000     0.00000     0.00000     0.00000
   7       0.00000     0.00000     0.00000    -0.00000     0.00000     0.00000
   8       0.00000     0.00000     0.00000     0.00000     0.00000     0.00000
   9       0.00000     0.00000     0.00000     0.00000    -0.00000     0.00000
  10       0.00000     0.00000     0.00000     0.00000    -0.00000     0.00000

            7           8           9          10  
       ----------- ----------- ----------- -----------
   1       0.00000     0.00000    -0.00000     0.00000
   2       0.00000     0.00000     0.00000     0.00000
   3       0.00000     0.00000     0.00000     0.00000
   4      -0.00000     0.00000     0.00000    -0.00000
   5       0.00000     0.00000     0.00000     0.00000
   6       0.00000     0.00000     0.00000     0.00000
   7      -0.00000     0.00000     0.00000     0.00000
   8       0.00000     0.00000     0.00000     0.00000
   9       0.00000     0.00000    -0.00000    -0.00000
  10       0.00000     0.00000    -0.00000     0.00000

                  WFN1 Final alpha Correlation Function Analysis
                  ----------------------------------------------


 global array: Ca[1:10,1:10],  handle: -977 

                     1                       2                       3                       4                       5                       6  
       ----------------------- ----------------------- ----------------------- ----------------------- ----------------------- -----------------------
   1       0.78249,    0.62220    -0.00910,    0.00233    -0.00069,   -0.00548    -0.01110,   -0.01070    -0.00630,    0.00506     0.00797,   -0.00416
   2      -0.00935,    0.00182    -0.38924,    0.91599     0.03683,   -0.08028     0.00205,   -0.00093     0.00032,    0.01883     0.00771,   -0.00316
   3       0.00087,   -0.00490     0.06627,   -0.05786     0.76508,   -0.63559    -0.03148,    0.01960     0.01389,    0.00134     0.01190,    0.01708
   4       0.00389,   -0.01494     0.00145,   -0.00661     0.00884,   -0.03578     0.39892,   -0.91040    -0.02613,    0.09587     0.01179,    0.00901
   5       0.00000,   -0.00000    -0.01074,   -0.00170     0.01091,    0.02022     0.07075,   -0.02427     0.58224,   -0.39300     0.58595,   -0.39534
   6       0.00848,    0.00842    -0.01658,    0.00392    -0.00721,   -0.00626     0.06258,   -0.02472     0.65406,   -0.25932    -0.65584,    0.26157
   7      -0.00629,   -0.00039    -0.00586,    0.00663    -0.01446,   -0.00971     0.00476,    0.00090    -0.00552,   -0.01190     0.01457,   -0.01635
   8       0.00000,    0.00000     0.00500,   -0.01678     0.01161,   -0.00276     0.00626,   -0.00548     0.00136,    0.00544     0.00092,   -0.01228
   9      -0.00265,   -0.00543     0.00706,    0.00413    -0.01524,   -0.01052    -0.01381,   -0.00098    -0.00592,    0.02057     0.00483,   -0.00147
  10      -0.00209,   -0.00144    -0.02466,    0.01112    -0.00814,    0.00262    -0.00126,    0.00231     0.00168,    0.01878    -0.00438,   -0.01869

                     7                       8                       9                      10  
       ----------------------- ----------------------- ----------------------- -----------------------
   1       0.00260,    0.00188    -0.00649,   -0.00109     0.00423,   -0.00004    -0.00104,   -0.00198
   2      -0.00686,    0.00036     0.00369,   -0.00563     0.00410,   -0.01807     0.02395,    0.01164
   3      -0.00199,   -0.00604    -0.00497,    0.02388     0.01158,   -0.00055    -0.00810,   -0.00823
   4      -0.00105,    0.01111    -0.00353,    0.00898     0.00833,   -0.00164    -0.00206,   -0.00056
   5      -0.01904,   -0.01000     0.00641,   -0.00144    -0.00019,    0.01262    -0.00173,   -0.00100
   6       0.01209,   -0.01276    -0.00358,   -0.00887     0.01354,    0.00851     0.02195,   -0.01536
   7       0.80959,   -0.23262    -0.51775,    0.14444     0.00791,    0.01011     0.00371,   -0.01575
   8       0.00156,   -0.36986    -0.00913,   -0.58565    -0.00025,   -0.72059     0.01254,    0.00504
   9      -0.34808,   -0.17722    -0.53012,   -0.29283     0.60635,    0.33439    -0.00490,   -0.00596
  10      -0.00247,    0.00971     0.01482,   -0.00950     0.00294,   -0.01079    -0.38783,   -0.92060

                   WFN1 Final beta Correlation Function Analysis
                   ---------------------------------------------


 global array: Cb[1:10,1:10],  handle: -976 

                     1                       2                       3                       4                       5                       6  
       ----------------------- ----------------------- ----------------------- ----------------------- ----------------------- -----------------------
   1       0.78249,    0.62220    -0.00910,    0.00233    -0.00069,   -0.00548    -0.01110,   -0.01070    -0.00630,    0.00506     0.00797,   -0.00416
   2      -0.00935,    0.00182    -0.38924,    0.91599     0.03683,   -0.08028     0.00205,   -0.00093     0.00032,    0.01883     0.00771,   -0.00316
   3       0.00087,   -0.00490     0.06627,   -0.05786     0.76508,   -0.63559    -0.03148,    0.01960     0.01389,    0.00134     0.01190,    0.01708
   4       0.00389,   -0.01494     0.00145,   -0.00661     0.00884,   -0.03578     0.39892,   -0.91040    -0.02613,    0.09587     0.01179,    0.00901
   5       0.00000,   -0.00000    -0.01074,   -0.00170     0.01091,    0.02022     0.07075,   -0.02427     0.58224,   -0.39300     0.58595,   -0.39534
   6       0.00848,    0.00842    -0.01658,    0.00392    -0.00721,   -0.00626     0.06258,   -0.02472     0.65406,   -0.25932    -0.65584,    0.26157
   7      -0.00629,   -0.00039    -0.00586,    0.00663    -0.01446,   -0.00971     0.00476,    0.00090    -0.00552,   -0.01190     0.01457,   -0.01635
   8       0.00000,    0.00000     0.00500,   -0.01678     0.01161,   -0.00276     0.00626,   -0.00548     0.00136,    0.00544     0.00092,   -0.01228
   9      -0.00265,   -0.00543     0.00706,    0.00413    -0.01524,   -0.01052    -0.01381,   -0.00098    -0.00592,    0.02057     0.00483,   -0.00147
  10      -0.00209,   -0.00144    -0.02466,    0.01112    -0.00814,    0.00262    -0.00126,    0.00231     0.00168,    0.01878    -0.00438,   -0.01869

                     7                       8                       9                      10  
       ----------------------- ----------------------- ----------------------- -----------------------
   1       0.00260,    0.00188    -0.00649,   -0.00109     0.00423,   -0.00004    -0.00104,   -0.00198
   2      -0.00686,    0.00036     0.00369,   -0.00563     0.00410,   -0.01807     0.02395,    0.01164
   3      -0.00199,   -0.00604    -0.00497,    0.02388     0.01158,   -0.00055    -0.00810,   -0.00823
   4      -0.00105,    0.01111    -0.00353,    0.00898     0.00833,   -0.00164    -0.00206,   -0.00056
   5      -0.01904,   -0.01000     0.00641,   -0.00144    -0.00019,    0.01262    -0.00173,   -0.00100
   6       0.01209,   -0.01276    -0.00358,   -0.00887     0.01354,    0.00851     0.02195,   -0.01536
   7       0.80959,   -0.23262    -0.51775,    0.14444     0.00791,    0.01011     0.00371,   -0.01575
   8       0.00156,   -0.36986    -0.00913,   -0.58565    -0.00025,   -0.72059     0.01254,    0.00504
   9      -0.34808,   -0.17722    -0.53012,   -0.29283     0.60635,    0.33439    -0.00490,   -0.00596
  10      -0.00247,    0.00971     0.01482,   -0.00950     0.00294,   -0.01079    -0.38783,   -0.92060

                     WFN1 Final Alpha Natural Orbital Analysis
                     -----------------------------------------

 Vector    1  Occ=9.994209D-01  E= 0.000000D+00
              MO Center= -6.8D-04,  7.6D-04, -1.1D-03, r^2= 6.5D-01
   Bfn.  Coefficient  Atom+Function         Bfn.  Coefficient  Atom+Function  
  ----- ------------  ---------------      ----- ------------  ---------------
     6      0.335972  2 H  s                  1      0.331778  1 H  s          
     2      0.251411  1 H  s                  7      0.247259  2 H  s          

 Vector    2  Occ=9.070620D-05  E= 0.000000D+00
              MO Center=  1.6D-03, -1.2D-03,  3.2D-03, r^2= 2.0D+00
   Bfn.  Coefficient  Atom+Function         Bfn.  Coefficient  Atom+Function  
  ----- ------------  ---------------      ----- ------------  ---------------
     7     -1.974363  2 H  s                  2      1.962816  1 H  s          
     1      0.118890  1 H  s                  6     -0.104152  2 H  s          
     5     -0.046476  1 H  pz                10     -0.032644  2 H  pz         

 Vector    3  Occ=2.477719D-05  E= 0.000000D+00
              MO Center=  1.5D-04,  1.6D-04, -4.1D-03, r^2= 1.6D+00
   Bfn.  Coefficient  Atom+Function         Bfn.  Coefficient  Atom+Function  
  ----- ------------  ---------------      ----- ------------  ---------------
     1      0.742396  1 H  s                  2     -0.681799  1 H  s          
     6      0.672729  2 H  s                  7     -0.666655  2 H  s          
     5      0.045263  1 H  pz         

 Vector    4  Occ=2.383466D-04  E= 0.000000D+00
              MO Center=  5.1D-03, -3.4D-03, -1.2D-02, r^2= 1.1D+00
   Bfn.  Coefficient  Atom+Function         Bfn.  Coefficient  Atom+Function  
  ----- ------------  ---------------      ----- ------------  ---------------
     2      1.580884  1 H  s                  7     -1.573102  2 H  s          
     1     -0.755078  1 H  s                  6      0.742042  2 H  s          
     5      0.404953  1 H  pz                10      0.387342  2 H  pz         

 Vector    5  Occ=6.268065D-18  E= 0.000000D+00
              MO Center=  2.1D-04,  3.0D-04, -9.9D-03, r^2= 3.9D-01
   Bfn.  Coefficient  Atom+Function         Bfn.  Coefficient  Atom+Function  
  ----- ------------  ---------------      ----- ------------  ---------------
     4     -0.494684  1 H  py                 9     -0.466514  2 H  py         
     3     -0.337787  1 H  px                 8     -0.329091  2 H  px         
     1      0.046048  1 H  s                 10      0.041806  2 H  pz         
     7     -0.025635  2 H  s          

 Vector    6  Occ=1.427186D-04  E= 0.000000D+00
              MO Center=  7.6D-04, -5.5D-04, -1.5D-03, r^2= 3.9D-01
   Bfn.  Coefficient  Atom+Function         Bfn.  Coefficient  Atom+Function  
  ----- ------------  ---------------      ----- ------------  ---------------
     3      0.485161  1 H  px                 8      0.476425  2 H  px         
     9     -0.336206  2 H  py                 4     -0.330902  1 H  py         
     7      0.029983  2 H  s                  2     -0.026851  1 H  s          

 Vector    7  Occ=3.967374D-05  E= 0.000000D+00
              MO Center= -3.2D-04, -7.4D-04,  6.1D-03, r^2= 5.4D-01
   Bfn.  Coefficient  Atom+Function         Bfn.  Coefficient  Atom+Function  
  ----- ------------  ---------------      ----- ------------  ---------------
     5      0.716407  1 H  pz                10     -0.689747  2 H  pz         
     6     -0.441101  2 H  s                  1     -0.373357  1 H  s          
     2      0.199445  1 H  s                  7      0.199141  2 H  s          

 Vector    8  Occ=1.617547D-16  E= 0.000000D+00
              MO Center= -8.8D-03, -7.7D-04,  5.1D-03, r^2= 5.0D-01
   Bfn.  Coefficient  Atom+Function         Bfn.  Coefficient  Atom+Function  
  ----- ------------  ---------------      ----- ------------  ---------------
     8     -0.962037  2 H  px                 3      0.953822  1 H  px         
     9     -0.084933  2 H  py                 4      0.082633  1 H  py         
     6      0.067519  2 H  s                  1     -0.052870  1 H  s          
     5     -0.040989  1 H  pz         

 Vector    9  Occ=3.649747D-05  E= 0.000000D+00
              MO Center= -3.4D-04,  3.9D-03,  7.1D-03, r^2= 5.0D-01
   Bfn.  Coefficient  Atom+Function         Bfn.  Coefficient  Atom+Function  
  ----- ------------  ---------------      ----- ------------  ---------------
     9     -0.964364  2 H  py                 4      0.951785  1 H  py         
     3     -0.089740  1 H  px                 8      0.077861  2 H  px         
    10     -0.028949  2 H  pz         

 Vector   10  Occ=6.413931D-06  E= 0.000000D+00
              MO Center=  2.3D-03,  1.5D-03,  6.9D-03, r^2= 4.6D-01
   Bfn.  Coefficient  Atom+Function         Bfn.  Coefficient  Atom+Function  
  ----- ------------  ---------------      ----- ------------  ---------------
     6     -2.492725  2 H  s                  1      2.479826  1 H  s          
    10      1.954807  2 H  pz                 5      1.941105  1 H  pz         


                     WFN1 Final Beta Natural Orbital Analysis
                     ----------------------------------------

 Vector    1  Occ=9.994209D-01  E= 0.000000D+00
              MO Center= -6.8D-04,  7.6D-04, -1.1D-03, r^2= 6.5D-01
   Bfn.  Coefficient  Atom+Function         Bfn.  Coefficient  Atom+Function  
  ----- ------------  ---------------      ----- ------------  ---------------
     6      0.335972  2 H  s                  1      0.331778  1 H  s          
     2      0.251411  1 H  s                  7      0.247259  2 H  s          

 Vector    2  Occ=9.070620D-05  E= 0.000000D+00
              MO Center=  1.6D-03, -1.2D-03,  3.2D-03, r^2= 2.0D+00
   Bfn.  Coefficient  Atom+Function         Bfn.  Coefficient  Atom+Function  
  ----- ------------  ---------------      ----- ------------  ---------------
     7     -1.974363  2 H  s                  2      1.962816  1 H  s          
     1      0.118890  1 H  s                  6     -0.104152  2 H  s          
     5     -0.046476  1 H  pz                10     -0.032644  2 H  pz         

 Vector    3  Occ=2.477719D-05  E= 0.000000D+00
              MO Center=  1.5D-04,  1.6D-04, -4.1D-03, r^2= 1.6D+00
   Bfn.  Coefficient  Atom+Function         Bfn.  Coefficient  Atom+Function  
  ----- ------------  ---------------      ----- ------------  ---------------
     1      0.742396  1 H  s                  2     -0.681799  1 H  s          
     6      0.672729  2 H  s                  7     -0.666655  2 H  s          
     5      0.045263  1 H  pz         

 Vector    4  Occ=2.383466D-04  E= 0.000000D+00
              MO Center=  5.1D-03, -3.4D-03, -1.2D-02, r^2= 1.1D+00
   Bfn.  Coefficient  Atom+Function         Bfn.  Coefficient  Atom+Function  
  ----- ------------  ---------------      ----- ------------  ---------------
     2      1.580884  1 H  s                  7     -1.573102  2 H  s          
     1     -0.755078  1 H  s                  6      0.742042  2 H  s          
     5      0.404953  1 H  pz                10      0.387342  2 H  pz         

 Vector    5  Occ=6.268065D-18  E= 0.000000D+00
              MO Center=  2.1D-04,  3.0D-04, -9.9D-03, r^2= 3.9D-01
   Bfn.  Coefficient  Atom+Function         Bfn.  Coefficient  Atom+Function  
  ----- ------------  ---------------      ----- ------------  ---------------
     4     -0.494684  1 H  py                 9     -0.466514  2 H  py         
     3     -0.337787  1 H  px                 8     -0.329091  2 H  px         
     1      0.046048  1 H  s                 10      0.041806  2 H  pz         
     7     -0.025635  2 H  s          

 Vector    6  Occ=1.427186D-04  E= 0.000000D+00
              MO Center=  7.6D-04, -5.5D-04, -1.5D-03, r^2= 3.9D-01
   Bfn.  Coefficient  Atom+Function         Bfn.  Coefficient  Atom+Function  
  ----- ------------  ---------------      ----- ------------  ---------------
     3      0.485161  1 H  px                 8      0.476425  2 H  px         
     9     -0.336206  2 H  py                 4     -0.330902  1 H  py         
     7      0.029983  2 H  s                  2     -0.026851  1 H  s          

 Vector    7  Occ=3.967374D-05  E= 0.000000D+00
              MO Center= -3.2D-04, -7.4D-04,  6.1D-03, r^2= 5.4D-01
   Bfn.  Coefficient  Atom+Function         Bfn.  Coefficient  Atom+Function  
  ----- ------------  ---------------      ----- ------------  ---------------
     5      0.716407  1 H  pz                10     -0.689747  2 H  pz         
     6     -0.441101  2 H  s                  1     -0.373357  1 H  s          
     2      0.199445  1 H  s                  7      0.199141  2 H  s          

 Vector    8  Occ=1.617547D-16  E= 0.000000D+00
              MO Center= -8.8D-03, -7.7D-04,  5.1D-03, r^2= 5.0D-01
   Bfn.  Coefficient  Atom+Function         Bfn.  Coefficient  Atom+Function  
  ----- ------------  ---------------      ----- ------------  ---------------
     8     -0.962037  2 H  px                 3      0.953822  1 H  px         
     9     -0.084933  2 H  py                 4      0.082633  1 H  py         
     6      0.067519  2 H  s                  1     -0.052870  1 H  s          
     5     -0.040989  1 H  pz         

 Vector    9  Occ=3.649747D-05  E= 0.000000D+00
              MO Center= -3.4D-04,  3.9D-03,  7.1D-03, r^2= 5.0D-01
   Bfn.  Coefficient  Atom+Function         Bfn.  Coefficient  Atom+Function  
  ----- ------------  ---------------      ----- ------------  ---------------
     9     -0.964364  2 H  py                 4      0.951785  1 H  py         
     3     -0.089740  1 H  px                 8      0.077861  2 H  px         
    10     -0.028949  2 H  pz         

 Vector   10  Occ=6.413931D-06  E= 0.000000D+00
              MO Center=  2.3D-03,  1.5D-03,  6.9D-03, r^2= 4.6D-01
   Bfn.  Coefficient  Atom+Function         Bfn.  Coefficient  Atom+Function  
  ----- ------------  ---------------      ----- ------------  ---------------
     6     -2.492725  2 H  s                  1      2.479826  1 H  s          
    10      1.954807  2 H  pz                 5      1.941105  1 H  pz         


 Task  times  cpu:      152.6s     wall:      177.9s
 Summary of allocated global arrays
-----------------------------------
  No active global arrays



                         GA Statistics for process    0
                         ------------------------------

       create   destroy   get      put      acc     scatter   gather  read&inc
calls:   44       44     5.54e+07 2.53e+04 3.17e+04    0        0       11     
number of processes/call 1.00e+00 1.00e+00 1.00e+00 0.00e+00 0.00e+00
bytes total:             4.43e+10 2.54e+07 3.16e+07 0.00e+00 0.00e+00 8.80e+01
bytes remote:            0.00e+00 0.00e+00 0.00e+00 0.00e+00 0.00e+00 0.00e+00
Max memory consumed for GA by this process: 268000 bytes
MA_summarize_allocated_blocks: starting scan ...
MA_summarize_allocated_blocks: scan completed: 0 heap blocks, 0 stack blocks
MA usage statistics:

	allocation statistics:
					      heap	     stack
					      ----	     -----
	current number of blocks	         0	         0
	maximum number of blocks	        19	        17
	current total bytes		         0	         0
	maximum total bytes		   3205432	  22508664
	maximum total K-bytes		      3206	     22509
	maximum total M-bytes		         4	        23


                                NWChem Input Module
                                -------------------





                                     CITATION
                                     --------
                Please cite the following reference when publishing
                           results obtained with NWChem:

                 M. Valiev, E.J. Bylaska, N. Govind, K. Kowalski,
              T.P. Straatsma, H.J.J. van Dam, D. Wang, J. Nieplocha,
                        E. Apra, T.L. Windus, W.A. de Jong
                 "NWChem: a comprehensive and scalable open-source
                  solution for large scale molecular simulations"
                      Comput. Phys. Commun. 181, 1477 (2010)
                           doi:10.1016/j.cpc.2010.04.018

                                      AUTHORS
                                      -------
          E. Apra, E. J. Bylaska, W. A. de Jong, N. Govind, K. Kowalski,
       T. P. Straatsma, M. Valiev, H. J. J. van Dam, D. Wang, T. L. Windus,
        J. Hammond, J. Autschbach, K. Bhaskaran-Nair, J. Brabec, K. Lopata,
    S. A. Fischer, S. Krishnamoorthy, M. Jacquelin, W. Ma, M. Klemm, O. Villa,
      Y. Chen, V. Anisimov, F. Aquino, S. Hirata, M. T. Hackler, V. Konjkov,
      T. Risthaus, M. Malagoli, A. Marenich, A. Otero-de-la-Roza, J. Mullin,
        P. Nichols, R. Peverati, J. Pittner, Y. Zhao, P.-D. Fan, A. Fonari,
       M. Williamson, R. J. Harrison, J. R. Rehr, M. Dupuis, D. Silverstein,
    D. M. A. Smith, J. Nieplocha, V. Tipparaju, M. Krishnan, B. E. Van Kuiken,
        A. Vazquez-Mayagoitia, L. Jensen, M. Swart, Q. Wu, T. Van Voorhis,
     A. A. Auer, M. Nooijen, L. D. Crosby, E. Brown, G. Cisneros, G. I. Fann,
   H. Fruchtl, J. Garza, K. Hirao, R. A. Kendall, J. A. Nichols, K. Tsemekhman,
    K. Wolinski, J. Anchell, D. E. Bernholdt, P. Borowski, T. Clark, D. Clerc,
   H. Dachsel, M. J. O. Deegan, K. Dyall, D. Elwood, E. Glendening, M. Gutowski,
   A. C. Hess, J. Jaffe, B. G. Johnson, J. Ju, R. Kobayashi, R. Kutteh, Z. Lin,
   R. Littlefield, X. Long, B. Meng, T. Nakajima, S. Niu, L. Pollack, M. Rosing,
   K. Glaesemann, G. Sandrone, M. Stave, H. Taylor, G. Thomas, J. H. van Lenthe,
                               A. T. Wong, Z. Zhang.

 Total times  cpu:      152.6s     wall:      178.0s
