 argument  1 = input-wf.nw



============================== echo of input deck ==============================
echo
start wfn1_dat
geometry units au noautoz
  H 0 0 -2.24434600000000000000
  H 0 0  2.24434600000000000000
  symmetry cs
end
basis
  H library 6-31g**
end
set wfn1:input_vectors "atomic"
set wfn1:solver "monte-carlo"
set wfn1:print_error F
set wfn1:t_initial 0.1
#set wfn1:corr_expr "wfn1_mx"
set wfn1:corr_expr "wfn1c"
set wfn1:t_bath 0.0
set wfn1:maxit  20000
task wfn1 energy
================================================================================


                                         
                                         


              Northwest Computational Chemistry Package (NWChem) 6.8
              ------------------------------------------------------


                    Environmental Molecular Sciences Laboratory
                       Pacific Northwest National Laboratory
                                Richland, WA 99352

                              Copyright (c) 1994-2015
                       Pacific Northwest National Laboratory
                            Battelle Memorial Institute

             NWChem is an open-source computational chemistry package
                        distributed under the terms of the
                      Educational Community License (ECL) 2.0
             A copy of the license is included with this distribution
                              in the LICENSE.TXT file

                                  ACKNOWLEDGMENT
                                  --------------

            This software and its documentation were developed at the
            EMSL at Pacific Northwest National Laboratory, a multiprogram
            national laboratory, operated for the U.S. Department of Energy
            by Battelle under Contract Number DE-AC05-76RL01830. Support
            for this work was provided by the Department of Energy Office
            of Biological and Environmental Research, Office of Basic
            Energy Sciences, and the Office of Advanced Scientific Computing.


           Job information
           ---------------

    hostname        = erato
    program         = ../../../bin/LINUX64/nwchem
    date            = Tue Mar  2 01:47:21 2021

    compiled        = Sun_Feb_28_18:02:42_2021
    source          = /home/hvandam/nwchem-1-wfn1
    nwchem branch   = Development
    nwchem revision = nwchem_on_git-124-gad72d19fff205e319ffbbf2bca37a04ded6ad57b
    ga revision     = nwchem_on_git-124-gad72d19
    use scalapack   = F
    input           = input-wf.nw
    prefix          = wfn1_dat.
    data base       = ./wfn1_dat.db
    status          = startup
    nproc           =        1
    time left       =     -1s



           Memory information
           ------------------

    heap     =   13107198 doubles =    100.0 Mbytes
    stack    =   13107195 doubles =    100.0 Mbytes
    global   =   26214400 doubles =    200.0 Mbytes (distinct from heap & stack)
    total    =   52428793 doubles =    400.0 Mbytes
    verify   = yes
    hardfail = no 


           Directory information
           ---------------------

  0 permanent = .
  0 scratch   = .




                                NWChem Input Module
                                -------------------


 Turning off AUTOSYM since
 SYMMETRY directive was detected!



                             Geometry "geometry" -> ""
                             -------------------------

 Output coordinates in a.u. (scale by  1.000000000 to convert to a.u.)

  No.       Tag          Charge          X              Y              Z
 ---- ---------------- ---------- -------------- -------------- --------------
    1 H                    1.0000     0.00000000     0.00000000    -2.24434600
    2 H                    1.0000     0.00000000     0.00000000     2.24434600

      Atomic Mass 
      ----------- 

      H                  1.007825


 Effective nuclear repulsion energy (a.u.)       0.2227820488

            Nuclear Dipole moment (a.u.) 
            ----------------------------
        X                 Y               Z
 ---------------- ---------------- ----------------
     0.0000000000     0.0000000000     0.0000000000

      Symmetry information
      --------------------

 Group name             Cs        
 Group number              2
 Group order               2
 No. of unique centers     1

      Symmetry unique atoms

     1


            XYZ format geometry
            -------------------
     2
 geometry
 H                     0.00000000     0.00000000    -1.18765684
 H                     0.00000000     0.00000000     1.18765684

                      Basis "ao basis" -> "" (cartesian)
                      -----
  H (Hydrogen)
  ------------
            Exponent  Coefficients 
       -------------- ---------------------------------------------------------
  1 S  1.87311370E+01  0.033495
  1 S  2.82539370E+00  0.234727
  1 S  6.40121700E-01  0.813757

  2 S  1.61277800E-01  1.000000

  3 P  1.10000000E+00  1.000000



 Summary of "ao basis" -> "" (cartesian)
 ------------------------------------------------------------------------------
       Tag                 Description            Shells   Functions and Types
 ---------------- ------------------------------  ------  ---------------------
 H                          6-31g**                  3        5   2s1p



                                NWChem WFN1 Module
                                ------------------



          No. of electrons :     2
           Alpha electrons :     1
            Beta electrons :     1
          Charge           :     0
          Spin multiplicity:     1

 HvD: wfn1_inpdft
 HvD: nquad_task =                     1
 HvD: iangquad   =                     0
 HvD: gridtype   = user      
 HvD: leb        =  T
 HvD: radgrid    = murakn    
 HvD: trunc_neigh=  T
 HvD: lssw       =  T
 HvD: whichssw   = erf1    
 HvD: mxnrad     =                     0
 HvD: mxnang     =                     0
 HVD: wfn1: movecs_in  = atomic                                                                                                                                                                                                                                                          
 HVD: wfn1: movecs_out = ./wfn1_dat.movecs                                                                                                                                                                                                                                               

      Superposition of Atomic Density Guess
      -------------------------------------

 Sum of atomic energies:          -0.99646508

      Non-variational initial energy
      ------------------------------

 Total energy =      -0.685748
 1-e energy   =      -1.441968
 2-e energy   =       0.533438
 HOMO         =      -0.236909
 LUMO         =      -0.141410

 iteration              energy           error
 ---------              ------           -----
         0         -0.86401746        0.200000
         1         -0.86996326        0.200000
         2         -0.87005213        0.200000
         3         -0.87442887        0.200000
         4         -0.87451189        0.200000
         5         -0.87503164        0.200000
         6         -0.87548089        0.200000
         7         -0.87586921        0.200000
         8         -0.87728483        0.200000
         9         -0.87952535        0.200000
        10         -0.87960495        0.200000
        11         -0.87989293        0.200000
        12         -0.88031033        0.200000
        13         -0.88148279        0.200000
        14         -0.88174643        0.200000
        15         -0.88218127        0.200000
        16         -0.88329121        0.200000
        17         -0.88332342        0.200000
        18         -0.88353920        0.200000
        19         -0.88397996        0.200000
        20         -0.88435561        0.200000
        21         -0.88439770        0.200000
        22         -0.88480163        0.200000
        23         -0.88512933        0.185175
        24         -0.88523591        0.185175
        25         -0.88662979        0.185175
        26         -0.88664082        0.185175
        27         -0.88692104        0.158740
        28         -0.88726574        0.158740
        29         -0.88762073        0.158740
        30         -0.88771859        0.158740
        31         -0.88808830        0.158740
        32         -0.88847665        0.146973
        33         -0.88849493        0.136079
        34         -0.88856967        0.116653
        35         -0.88882625        0.116653
        36         -0.88888999        0.116653
        37         -0.88908828        0.116653
        38         -0.88921291        0.116653
        39         -0.88940923        0.116653
        40         -0.88958120        0.100000
        41         -0.88958446        0.100000
        42         -0.88968047        0.100000
        43         -0.88987541        0.100000
        44         -0.89000834        0.100000
        45         -0.89002738        0.079370
        46         -0.89022152        0.079370
        47         -0.89022904        0.079370
        48         -0.89036961        0.079370
        49         -0.89039581        0.068040
        50         -0.89042793        0.068040
        51         -0.89048865        0.068040
        52         -0.89049499        0.068040
        53         -0.89052579        0.068040
        54         -0.89061565        0.068040
        55         -0.89065181        0.062996
        56         -0.89068535        0.062996
        57         -0.89068760        0.058326
        58         -0.89068767        0.058326
        59         -0.89085456        0.058326
        60         -0.89091914        0.058326
        61         -0.89094637        0.058326
        62         -0.89095415        0.058326
        63         -0.89106981        0.058326
        64         -0.89109469        0.058326
        65         -0.89109473        0.058326
        66         -0.89111027        0.058326
        67         -0.89115168        0.054003
        68         -0.89115766        0.054003
        69         -0.89116646        0.054003
        70         -0.89118951        0.050000
        71         -0.89121334        0.050000
        72         -0.89121873        0.050000
        73         -0.89124524        0.050000
        74         -0.89126491        0.050000
        75         -0.89127622        0.050000
        76         -0.89132597        0.046294
        77         -0.89134250        0.046294
        78         -0.89134781        0.046294
        79         -0.89135241        0.046294
        80         -0.89139306        0.046294
        81         -0.89145725        0.046294
        82         -0.89145992        0.046294
        83         -0.89147660        0.042862
        84         -0.89151635        0.036743
        85         -0.89153336        0.031498
        86         -0.89153500        0.027001
        87         -0.89154736        0.027001
        88         -0.89158450        0.027001
        89         -0.89158937        0.025000
        90         -0.89159280        0.025000
        91         -0.89160352        0.025000
        92         -0.89161305        0.025000
        93         -0.89161557        0.021431
        94         -0.89163158        0.021431
        95         -0.89165050        0.021431
        96         -0.89165112        0.021431
        97         -0.89165127        0.021431
        98         -0.89165328        0.021431
        99         -0.89166373        0.021431
       100         -0.89167115        0.019843
       101         -0.89168970        0.019843
       102         -0.89168972        0.019843
       103         -0.89169289        0.018372
       104         -0.89169714        0.018372
       105         -0.89170424        0.018372
       106         -0.89171870        0.018372
       107         -0.89173289        0.018372
       108         -0.89174119        0.018372
       109         -0.89174733        0.018372
       110         -0.89175050        0.018372
       111         -0.89175718        0.018372
       112         -0.89175723        0.017010
       113         -0.89176474        0.017010
       114         -0.89176546        0.017010
       115         -0.89176671        0.017010
       116         -0.89176805        0.017010
       117         -0.89177510        0.017010
       118         -0.89177952        0.017010
       119         -0.89178510        0.015749
       120         -0.89178709        0.015749
       121         -0.89178836        0.015749
       122         -0.89179241        0.015749
       123         -0.89180326        0.015749
       124         -0.89180899        0.015749
       125         -0.89181656        0.015749
       126         -0.89181913        0.015749
       127         -0.89182368        0.015749
       128         -0.89183302        0.015749
       129         -0.89183500        0.015749
       130         -0.89183660        0.015749
       131         -0.89183910        0.015749
       132         -0.89184763        0.015749
       133         -0.89184899        0.015749
       134         -0.89186214        0.015749
       135         -0.89186253        0.015749
       136         -0.89186947        0.015749
       137         -0.89187503        0.015749
       138         -0.89187595        0.015749
       139         -0.89187954        0.015749
       140         -0.89189168        0.015749
       141         -0.89189187        0.015749
       142         -0.89190834        0.015749
       143         -0.89191002        0.015749
       144         -0.89191070        0.015749
       145         -0.89191161        0.015749
       146         -0.89192239        0.015749
       147         -0.89192523        0.015749
       148         -0.89193377        0.015749
       149         -0.89194342        0.015749
       150         -0.89195882        0.015749
       151         -0.89196045        0.015749
       152         -0.89196646        0.015749
       153         -0.89196947        0.015749
       154         -0.89197146        0.015749
       155         -0.89197411        0.014582
       156         -0.89197585        0.014582
       157         -0.89197801        0.014582
       158         -0.89198032        0.014582
       159         -0.89198308        0.014582
       160         -0.89198492        0.014582
       161         -0.89199369        0.014582
       162         -0.89200807        0.014582
       163         -0.89201423        0.014582
       164         -0.89202778        0.014582
       165         -0.89202905        0.014582
       166         -0.89203456        0.014582
       167         -0.89203833        0.014582
       168         -0.89204385        0.014582
       169         -0.89204831        0.014582
       170         -0.89204869        0.014582
       171         -0.89205656        0.014582
       172         -0.89206668        0.014582
       173         -0.89207325        0.014582
       174         -0.89207768        0.014582
       175         -0.89208013        0.014582
       176         -0.89208405        0.014582
       177         -0.89208776        0.014582
       178         -0.89208872        0.014582
       179         -0.89209754        0.014582
       180         -0.89209997        0.014582
       181         -0.89210182        0.014582
       182         -0.89210521        0.014582
       183         -0.89211204        0.014582
       184         -0.89211311        0.014582
       185         -0.89211821        0.014582
       186         -0.89212506        0.014582
       187         -0.89212538        0.013501
       188         -0.89212707        0.013501
       189         -0.89213592        0.013501
       190         -0.89213838        0.013501
       191         -0.89214858        0.013501
       192         -0.89215318        0.013501
       193         -0.89216062        0.013501
       194         -0.89216258        0.013501
       195         -0.89216876        0.013501
       196         -0.89217086        0.013501
       197         -0.89217236        0.013501
       198         -0.89217529        0.013501
       199         -0.89217817        0.013501
       200         -0.89218997        0.013501
       201         -0.89219432        0.013501
       202         -0.89219436        0.013501
       203         -0.89219494        0.012500
       204         -0.89220116        0.012500
       205         -0.89220450        0.012500
       206         -0.89220805        0.012500
       207         -0.89220822        0.012500
       208         -0.89220941        0.012500
       209         -0.89221117        0.012500
       210         -0.89222119        0.012500
       211         -0.89222842        0.012500
       212         -0.89223086        0.012500
       213         -0.89224009        0.012500
       214         -0.89224116        0.012500
       215         -0.89224149        0.012500
       216         -0.89224472        0.012500
       217         -0.89225122        0.012500
       218         -0.89225354        0.012500
       219         -0.89226043        0.012500
       220         -0.89226362        0.011573
       221         -0.89226906        0.011573
       222         -0.89227109        0.011573
       223         -0.89227440        0.011573
       224         -0.89227656        0.011573
       225         -0.89227943        0.011573
       226         -0.89227990        0.011573
       227         -0.89228504        0.011573
       228         -0.89228922        0.011573
       229         -0.89229038        0.011573
       230         -0.89229395        0.011573
       231         -0.89229641        0.011573
       232         -0.89229907        0.011573
       233         -0.89230995        0.011573
       234         -0.89231943        0.011573
       235         -0.89232319        0.011573
       236         -0.89232778        0.011573
       237         -0.89232936        0.011573
       238         -0.89233048        0.011573
       239         -0.89233369        0.011573
       240         -0.89233472        0.011573
       241         -0.89235153        0.011573
       242         -0.89235317        0.011573
       243         -0.89235782        0.011573
       244         -0.89236065        0.011573
       245         -0.89236506        0.011573
       246         -0.89236886        0.011573
       247         -0.89236920        0.011573
       248         -0.89237871        0.011573
       249         -0.89238683        0.011573
       250         -0.89238686        0.011573
       251         -0.89238825        0.011573
       252         -0.89238998        0.011573
       253         -0.89239055        0.011573
       254         -0.89239176        0.011573
       255         -0.89240448        0.011573
       256         -0.89240959        0.011573
       257         -0.89241380        0.011573
       258         -0.89242122        0.011573
       259         -0.89242185        0.011573
       260         -0.89242412        0.011573
       261         -0.89242775        0.011573
       262         -0.89243202        0.011573
       263         -0.89243455        0.011573
       264         -0.89243666        0.011573
       265         -0.89244024        0.011573
       266         -0.89244162        0.011573
       267         -0.89245098        0.011573
       268         -0.89245157        0.011573
       269         -0.89245591        0.011573
       270         -0.89246722        0.011573
       271         -0.89246948        0.011573
       272         -0.89247002        0.011573
       273         -0.89247476        0.011573
       274         -0.89247762        0.011573
       275         -0.89248343        0.011573
       276         -0.89248638        0.011573
       277         -0.89248763        0.011573
       278         -0.89249164        0.011573
       279         -0.89250125        0.011573
       280         -0.89250190        0.011573
       281         -0.89250488        0.011573
       282         -0.89250672        0.011573
       283         -0.89250960        0.011573
       284         -0.89251255        0.011573
       285         -0.89251394        0.011573
       286         -0.89252149        0.011573
       287         -0.89252375        0.011573
       288         -0.89252423        0.011573
       289         -0.89252566        0.011573
       290         -0.89252652        0.011573
       291         -0.89252745        0.011573
       292         -0.89253100        0.011573
       293         -0.89254265        0.011573
       294         -0.89254482        0.011573
       295         -0.89255315        0.011573
       296         -0.89255355        0.011573
       297         -0.89255808        0.011573
       298         -0.89256575        0.011573
       299         -0.89256589        0.011573
       300         -0.89256697        0.011573
       301         -0.89257126        0.011573
       302         -0.89257349        0.011573
       303         -0.89257386        0.011573
       304         -0.89257441        0.011573
       305         -0.89257903        0.011573
       306         -0.89257962        0.011573
       307         -0.89258896        0.011573
       308         -0.89259228        0.011573
       309         -0.89259445        0.011573
       310         -0.89259640        0.011573
       311         -0.89259814        0.011573
       312         -0.89260330        0.011573
       313         -0.89260472        0.011573
       314         -0.89260710        0.011573
       315         -0.89260990        0.011573
       316         -0.89262112        0.011573
       317         -0.89262189        0.011573
       318         -0.89262257        0.011573
       319         -0.89263025        0.011573
       320         -0.89263032        0.011573
       321         -0.89263068        0.011573
       322         -0.89263707        0.011573
       323         -0.89264103        0.011573
       324         -0.89264265        0.011573
       325         -0.89264618        0.011573
       326         -0.89264671        0.011573
       327         -0.89265319        0.011573
       328         -0.89266018        0.011573
       329         -0.89266021        0.011573
       330         -0.89266138        0.011573
       331         -0.89266651        0.011573
       332         -0.89267092        0.011573
       333         -0.89267100        0.011573
       334         -0.89267326        0.011573
       335         -0.89267395        0.011573
       336         -0.89268441        0.011573
       337         -0.89268664        0.011573
       338         -0.89268688        0.011573
       339         -0.89269310        0.011573
       340         -0.89269470        0.011573
       341         -0.89269654        0.011573
       342         -0.89269907        0.011573
       343         -0.89270145        0.011573
       344         -0.89270417        0.011573
       345         -0.89270899        0.011573
       346         -0.89271732        0.011573
       347         -0.89272342        0.011573
       348         -0.89272373        0.011573
       349         -0.89272416        0.011573
       350         -0.89272638        0.011573
       351         -0.89272954        0.011573
       352         -0.89273039        0.011573
       353         -0.89273505        0.011573
       354         -0.89273624        0.011573
       355         -0.89273717        0.011573
       356         -0.89273877        0.011573
       357         -0.89274372        0.011573
       358         -0.89275092        0.011573
       359         -0.89275223        0.011573
       360         -0.89275377        0.011573
       361         -0.89275404        0.011573
       362         -0.89275978        0.011573
       363         -0.89276042        0.011573
       364         -0.89277582        0.011573
       365         -0.89278179        0.011573
       366         -0.89278217        0.011573
       367         -0.89278440        0.011573
       368         -0.89278882        0.011573
       369         -0.89279158        0.011573
       370         -0.89279418        0.011573
       371         -0.89279494        0.011573
       372         -0.89280741        0.011573
       373         -0.89280811        0.011573
       374         -0.89281032        0.011573
       375         -0.89281285        0.011573
       376         -0.89281324        0.011573
       377         -0.89281379        0.011573
       378         -0.89281952        0.011573
       379         -0.89282387        0.011573
       380         -0.89282701        0.011573
       381         -0.89282930        0.011573
       382         -0.89283001        0.011573
       383         -0.89283048        0.011573
       384         -0.89284846        0.011573
       385         -0.89284847        0.011573
       386         -0.89284995        0.011573
       387         -0.89285250        0.011573
       388         -0.89286189        0.011573
       389         -0.89286211        0.011573
       390         -0.89286219        0.011573
       391         -0.89286676        0.011573
       392         -0.89287486        0.011573
       393         -0.89287598        0.011573
       394         -0.89288246        0.011573
       395         -0.89288796        0.011573
       396         -0.89289006        0.011573
       397         -0.89289509        0.010716
       398         -0.89289627        0.010716
       399         -0.89290050        0.010716
       400         -0.89290116        0.010716
       401         -0.89290261        0.010716
       402         -0.89290327        0.010716
       403         -0.89290685        0.010716
       404         -0.89291141        0.010716
       405         -0.89291488        0.010716
       406         -0.89291506        0.010716
       407         -0.89291635        0.010716
       408         -0.89292063        0.010716
       409         -0.89292546        0.010716
       410         -0.89292887        0.010716
       411         -0.89292907        0.010716
       412         -0.89293452        0.010716
       413         -0.89293867        0.010716
       414         -0.89294149        0.010716
       415         -0.89294332        0.010716
       416         -0.89294800        0.010716
       417         -0.89294876        0.010716
       418         -0.89294964        0.010716
       419         -0.89295144        0.010716
       420         -0.89295216        0.010716
       421         -0.89295320        0.010716
       422         -0.89295322        0.010716
       423         -0.89295872        0.010716
       424         -0.89295931        0.010716
       425         -0.89296044        0.010716
       426         -0.89296537        0.010716
       427         -0.89296890        0.010716
       428         -0.89297396        0.010716
       429         -0.89297589        0.010716
       430         -0.89297824        0.010716
       431         -0.89297854        0.010716
       432         -0.89298401        0.010716
       433         -0.89299206        0.010716
       434         -0.89299622        0.010716
       435         -0.89299747        0.010716
       436         -0.89300646        0.010716
       437         -0.89300754        0.010716
       438         -0.89300985        0.010716
       439         -0.89301934        0.010716
       440         -0.89302525        0.010716
       441         -0.89302833        0.010716
       442         -0.89303108        0.010716
       443         -0.89303721        0.010716
       444         -0.89304324        0.010716
       445         -0.89304746        0.010716
       446         -0.89305232        0.010716
       447         -0.89305235        0.010716
       448         -0.89305301        0.010716
       449         -0.89305560        0.010716
       450         -0.89306677        0.010716
       451         -0.89307435        0.010716
       452         -0.89307547        0.010716
       453         -0.89307615        0.010716
       454         -0.89308463        0.010716
       455         -0.89308662        0.010716
       456         -0.89308737        0.010716
       457         -0.89309688        0.010716
       458         -0.89310175        0.010716
       459         -0.89310730        0.010716
       460         -0.89310880        0.010716
       461         -0.89310983        0.010716
       462         -0.89311203        0.010716
       463         -0.89311335        0.010716
       464         -0.89311440        0.010716
       465         -0.89312593        0.010716
       466         -0.89312682        0.010716
       467         -0.89312890        0.010716
       468         -0.89313318        0.010716
       469         -0.89313508        0.010716
       470         -0.89313801        0.010716
       471         -0.89314207        0.010716
       472         -0.89314211        0.010716
       473         -0.89314860        0.010716
       474         -0.89315049        0.010716
       475         -0.89315389        0.010716
       476         -0.89315492        0.010716
       477         -0.89315708        0.010716
       478         -0.89315796        0.010716
       479         -0.89315955        0.010716
       480         -0.89316234        0.010716
       481         -0.89316388        0.010716
       482         -0.89316635        0.010716
       483         -0.89316873        0.010716
       484         -0.89317323        0.010716
       485         -0.89317405        0.010716
       486         -0.89317527        0.010716
       487         -0.89317535        0.010716
       488         -0.89317822        0.010716
       489         -0.89319013        0.010716
       490         -0.89319454        0.010716
       491         -0.89319646        0.010716
       492         -0.89319676        0.010716
       493         -0.89319761        0.010716
       494         -0.89319968        0.010716
       495         -0.89320848        0.010716
       496         -0.89321018        0.010716
       497         -0.89321193        0.010716
       498         -0.89321400        0.010716
       499         -0.89321832        0.010716
       500         -0.89321854        0.010716
       501         -0.89322119        0.010716
       502         -0.89322328        0.010716
       503         -0.89322808        0.010716
       504         -0.89322886        0.010716
       505         -0.89323218        0.010716
       506         -0.89323939        0.010716
       507         -0.89324715        0.010716
       508         -0.89324761        0.010716
       509         -0.89324952        0.010716
       510         -0.89326110        0.010716
       511         -0.89326111        0.010716
       512         -0.89326401        0.010716
       513         -0.89326668        0.010716
       514         -0.89327741        0.010716
       515         -0.89328081        0.010716
       516         -0.89328859        0.010716
       517         -0.89328901        0.009921
       518         -0.89329533        0.009921
       519         -0.89329689        0.009921
       520         -0.89330120        0.009921
       521         -0.89330319        0.009921
       522         -0.89330331        0.009921
       523         -0.89330494        0.009921
       524         -0.89330760        0.009921
       525         -0.89330783        0.009921
       526         -0.89331269        0.009921
       527         -0.89331679        0.009921
       528         -0.89331941        0.009921
       529         -0.89332316        0.009921
       530         -0.89332716        0.009921
       531         -0.89332841        0.009921
       532         -0.89333078        0.009921
       533         -0.89333161        0.009921
       534         -0.89333536        0.009921
       535         -0.89333721        0.009921
       536         -0.89333841        0.009921
       537         -0.89334288        0.009921
       538         -0.89335096        0.009921
       539         -0.89335247        0.009921
       540         -0.89335884        0.009921
       541         -0.89336159        0.009921
       542         -0.89336205        0.009921
       543         -0.89336460        0.009921
       544         -0.89336664        0.009921
       545         -0.89337428        0.009921
       546         -0.89338002        0.009921
       547         -0.89338952        0.009921
       548         -0.89338995        0.009921
       549         -0.89339147        0.009921
       550         -0.89339365        0.009921
       551         -0.89339610        0.009921
       552         -0.89339827        0.009921
       553         -0.89339878        0.009921
       554         -0.89339883        0.009921
       555         -0.89340219        0.009921
       556         -0.89340378        0.009921
       557         -0.89340897        0.009921
       558         -0.89341097        0.009921
       559         -0.89341541        0.009921
       560         -0.89341856        0.009921
       561         -0.89342301        0.009921
       562         -0.89342926        0.009921
       563         -0.89342994        0.009921
       564         -0.89343399        0.009921
       565         -0.89343720        0.009921
       566         -0.89344009        0.009921
       567         -0.89344364        0.009921
       568         -0.89345128        0.009921
       569         -0.89345609        0.009921
       570         -0.89345611        0.009921
       571         -0.89345688        0.009921
       572         -0.89345809        0.009921
       573         -0.89346010        0.009921
       574         -0.89346028        0.009921
       575         -0.89346397        0.009921
       576         -0.89346521        0.009921
       577         -0.89347046        0.009921
       578         -0.89347475        0.009921
       579         -0.89347792        0.009921
       580         -0.89347867        0.009921
       581         -0.89348322        0.009921
       582         -0.89348701        0.009921
       583         -0.89349540        0.009921
       584         -0.89349872        0.009921
       585         -0.89349919        0.009921
       586         -0.89350024        0.009921
       587         -0.89350580        0.009921
       588         -0.89350619        0.009921
       589         -0.89350975        0.009921
       590         -0.89351166        0.009921
       591         -0.89351501        0.009921
       592         -0.89351818        0.009921
       593         -0.89351838        0.009921
       594         -0.89351998        0.009921
       595         -0.89352338        0.009921
       596         -0.89352999        0.009921
       597         -0.89353039        0.009921
       598         -0.89353427        0.009921
       599         -0.89353720        0.009921
       600         -0.89354151        0.009921
       601         -0.89354649        0.009921
       602         -0.89355000        0.009921
       603         -0.89356210        0.009921
       604         -0.89357040        0.009921
       605         -0.89357661        0.009921
       606         -0.89358175        0.009921
       607         -0.89358291        0.009921
       608         -0.89358565        0.009921
       609         -0.89359257        0.009921
       610         -0.89359377        0.009921
       611         -0.89359691        0.009921
       612         -0.89359803        0.009921
       613         -0.89360130        0.009921
       614         -0.89360529        0.009921
       615         -0.89360695        0.009921
       616         -0.89360800        0.009921
       617         -0.89360940        0.009921
       618         -0.89361378        0.009921
       619         -0.89361445        0.009921
       620         -0.89361733        0.009921
       621         -0.89361799        0.009921
       622         -0.89362565        0.009921
       623         -0.89362776        0.009921
       624         -0.89362958        0.009921
       625         -0.89363120        0.009921
       626         -0.89363498        0.009921
       627         -0.89363722        0.009921
       628         -0.89363926        0.009921
       629         -0.89363987        0.009921
       630         -0.89364048        0.009921
       631         -0.89364443        0.009921
       632         -0.89364784        0.009921
       633         -0.89365077        0.009921
       634         -0.89365519        0.009921
       635         -0.89365575        0.009921
       636         -0.89366194        0.009921
       637         -0.89366258        0.009921
       638         -0.89366470        0.009921
       639         -0.89366587        0.009921
       640         -0.89366680        0.009921
       641         -0.89367011        0.009921
       642         -0.89367170        0.009921
       643         -0.89367521        0.009921
       644         -0.89367659        0.009921
       645         -0.89367821        0.009921
       646         -0.89367929        0.009921
       647         -0.89368487        0.009921
       648         -0.89368937        0.009921
       649         -0.89369193        0.009921
       650         -0.89369406        0.009921
       651         -0.89369873        0.009921
       652         -0.89370535        0.009921
       653         -0.89370810        0.009921
       654         -0.89371007        0.009921
       655         -0.89371154        0.009921
       656         -0.89371810        0.009921
       657         -0.89371847        0.009921
       658         -0.89372378        0.009921
       659         -0.89372738        0.009921
       660         -0.89373870        0.009921
       661         -0.89374339        0.009921
       662         -0.89374763        0.009921
       663         -0.89375106        0.009921
       664         -0.89375328        0.009921
       665         -0.89375660        0.009921
       666         -0.89376119        0.009921
       667         -0.89376226        0.009921
       668         -0.89376381        0.009921
       669         -0.89377581        0.009921
       670         -0.89377607        0.009921
       671         -0.89378534        0.009921
       672         -0.89378751        0.009921
       673         -0.89379166        0.009921
       674         -0.89379298        0.009921
       675         -0.89379310        0.009921
       676         -0.89379492        0.009921
       677         -0.89379966        0.009921
       678         -0.89380184        0.009921
       679         -0.89380724        0.009921
       680         -0.89381061        0.009921
       681         -0.89381671        0.009921
       682         -0.89382008        0.009921
       683         -0.89382216        0.009921
       684         -0.89382432        0.009921
       685         -0.89383248        0.009921
       686         -0.89383311        0.009186
       687         -0.89383582        0.009186
       688         -0.89384019        0.009186
       689         -0.89385348        0.009186
       690         -0.89385768        0.009186
       691         -0.89385882        0.009186
       692         -0.89386067        0.009186
       693         -0.89386366        0.009186
       694         -0.89386446        0.009186
       695         -0.89387352        0.009186
       696         -0.89387780        0.009186
       697         -0.89388513        0.009186
       698         -0.89388541        0.009186
       699         -0.89389095        0.009186
       700         -0.89389933        0.009186
       701         -0.89390208        0.009186
       702         -0.89390819        0.009186
       703         -0.89391349        0.009186
       704         -0.89391576        0.009186
       705         -0.89391684        0.009186
       706         -0.89392710        0.009186
       707         -0.89392752        0.009186
       708         -0.89392753        0.009186
       709         -0.89392830        0.009186
       710         -0.89393286        0.009186
       711         -0.89393561        0.009186
       712         -0.89393876        0.009186
       713         -0.89394699        0.009186
       714         -0.89395112        0.009186
       715         -0.89395537        0.009186
       716         -0.89395634        0.009186
       717         -0.89396277        0.009186
       718         -0.89396330        0.009186
       719         -0.89396525        0.009186
       720         -0.89396532        0.009186
       721         -0.89397147        0.009186
       722         -0.89397164        0.009186
       723         -0.89397361        0.009186
       724         -0.89397559        0.009186
       725         -0.89398475        0.009186
       726         -0.89398803        0.009186
       727         -0.89399763        0.009186
       728         -0.89400431        0.009186
       729         -0.89400513        0.009186
       730         -0.89400793        0.009186
       731         -0.89400836        0.009186
       732         -0.89401453        0.009186
       733         -0.89402567        0.009186
       734         -0.89402767        0.009186
       735         -0.89402769        0.009186
       736         -0.89403097        0.009186
       737         -0.89403422        0.009186
       738         -0.89403895        0.009186
       739         -0.89403920        0.009186
       740         -0.89404017        0.009186
       741         -0.89404063        0.009186
       742         -0.89404824        0.009186
       743         -0.89405510        0.009186
       744         -0.89405769        0.009186
       745         -0.89405787        0.009186
       746         -0.89406608        0.009186
       747         -0.89407147        0.009186
       748         -0.89407916        0.009186
       749         -0.89408331        0.009186
       750         -0.89408830        0.009186
       751         -0.89409593        0.009186
       752         -0.89410003        0.009186
       753         -0.89410278        0.009186
       754         -0.89410380        0.009186
       755         -0.89410616        0.009186
       756         -0.89410693        0.009186
       757         -0.89410881        0.009186
       758         -0.89411007        0.009186
       759         -0.89411499        0.009186
       760         -0.89411960        0.009186
       761         -0.89412498        0.009186
       762         -0.89412759        0.009186
       763         -0.89413703        0.009186
       764         -0.89414069        0.009186
       765         -0.89414097        0.009186
       766         -0.89414122        0.009186
       767         -0.89414571        0.009186
       768         -0.89415023        0.009186
       769         -0.89415152        0.009186
       770         -0.89415295        0.009186
       771         -0.89415304        0.009186
       772         -0.89416121        0.009186
       773         -0.89416357        0.009186
       774         -0.89417305        0.009186
       775         -0.89417777        0.009186
       776         -0.89418430        0.009186
       777         -0.89418599        0.009186
       778         -0.89418688        0.009186
       779         -0.89418794        0.009186
       780         -0.89419331        0.009186
       781         -0.89419388        0.009186
       782         -0.89419413        0.009186
       783         -0.89419660        0.009186
       784         -0.89419855        0.009186
       785         -0.89420356        0.009186
       786         -0.89421019        0.009186
       787         -0.89421325        0.009186
       788         -0.89421345        0.009186
       789         -0.89422190        0.009186
       790         -0.89422304        0.009186
       791         -0.89422495        0.009186
       792         -0.89422939        0.009186
       793         -0.89423029        0.009186
       794         -0.89423304        0.009186
       795         -0.89423312        0.009186
       796         -0.89424168        0.009186
       797         -0.89424615        0.009186
       798         -0.89424935        0.009186
       799         -0.89425453        0.009186
       800         -0.89425510        0.009186
       801         -0.89425585        0.009186
       802         -0.89425745        0.009186
       803         -0.89425881        0.009186
       804         -0.89426401        0.009186
       805         -0.89426415        0.009186
       806         -0.89426468        0.009186
       807         -0.89426795        0.009186
       808         -0.89426817        0.009186
       809         -0.89427054        0.009186
       810         -0.89427480        0.009186
       811         -0.89427797        0.009186
       812         -0.89428513        0.009186
       813         -0.89428918        0.009186
       814         -0.89429153        0.009186
       815         -0.89430276        0.009186
       816         -0.89431525        0.009186
       817         -0.89431905        0.009186
       818         -0.89432195        0.009186
       819         -0.89432620        0.009186
       820         -0.89432758        0.009186
       821         -0.89432843        0.009186
       822         -0.89433927        0.009186
       823         -0.89433938        0.009186
       824         -0.89434762        0.009186
       825         -0.89435120        0.009186
       826         -0.89435185        0.009186
       827         -0.89435490        0.009186
       828         -0.89435735        0.009186
       829         -0.89435895        0.009186
       830         -0.89436580        0.009186
       831         -0.89436987        0.009186
       832         -0.89436992        0.009186
       833         -0.89437544        0.009186
       834         -0.89438490        0.009186
       835         -0.89439301        0.009186
       836         -0.89439327        0.009186
       837         -0.89439337        0.009186
       838         -0.89439830        0.009186
       839         -0.89440205        0.009186
       840         -0.89440341        0.009186
       841         -0.89441030        0.009186
       842         -0.89441123        0.009186
       843         -0.89441683        0.009186
       844         -0.89442049        0.009186
       845         -0.89442816        0.009186
       846         -0.89442925        0.009186
       847         -0.89443315        0.009186
       848         -0.89443539        0.009186
       849         -0.89443883        0.009186
       850         -0.89443901        0.009186
       851         -0.89444096        0.009186
       852         -0.89445049        0.009186
       853         -0.89445466        0.009186
       854         -0.89445582        0.009186
       855         -0.89446671        0.009186
       856         -0.89446777        0.009186
       857         -0.89447018        0.009186
       858         -0.89447021        0.009186
       859         -0.89447857        0.009186
       860         -0.89448625        0.009186
       861         -0.89449507        0.009186
       862         -0.89449679        0.009186
       863         -0.89449942        0.009186
       864         -0.89450261        0.009186
       865         -0.89450433        0.009186
       866         -0.89450439        0.009186
       867         -0.89450454        0.009186
       868         -0.89450557        0.009186
       869         -0.89450861        0.009186
       870         -0.89451423        0.009186
       871         -0.89451972        0.009186
       872         -0.89452745        0.009186
       873         -0.89452894        0.009186
       874         -0.89452978        0.009186
       875         -0.89453126        0.009186
       876         -0.89453330        0.009186
       877         -0.89453902        0.009186
       878         -0.89454605        0.009186
       879         -0.89454934        0.009186
       880         -0.89454991        0.009186
       881         -0.89455605        0.009186
       882         -0.89456729        0.009186
       883         -0.89457096        0.009186
       884         -0.89457355        0.009186
       885         -0.89457746        0.009186
       886         -0.89458469        0.009186
       887         -0.89458826        0.009186
       888         -0.89459631        0.009186
       889         -0.89459801        0.009186
       890         -0.89459833        0.009186
       891         -0.89460543        0.009186
       892         -0.89460807        0.009186
       893         -0.89461084        0.009186
       894         -0.89461428        0.009186
       895         -0.89461695        0.009186
       896         -0.89462043        0.009186
       897         -0.89462501        0.009186
       898         -0.89462679        0.009186
       899         -0.89462772        0.009186
       900         -0.89463010        0.009186
       901         -0.89463167        0.009186
       902         -0.89463280        0.009186
       903         -0.89463524        0.009186
       904         -0.89463679        0.009186
       905         -0.89463682        0.009186
       906         -0.89464047        0.009186
       907         -0.89464292        0.009186
       908         -0.89464534        0.009186
       909         -0.89464832        0.009186
       910         -0.89464901        0.009186
       911         -0.89465224        0.009186
       912         -0.89465809        0.009186
       913         -0.89465993        0.009186
       914         -0.89466162        0.009186
       915         -0.89466293        0.009186
       916         -0.89466540        0.009186
       917         -0.89467096        0.009186
       918         -0.89467552        0.009186
       919         -0.89467791        0.009186
       920         -0.89468361        0.009186
       921         -0.89468394        0.009186
       922         -0.89469137        0.009186
       923         -0.89469449        0.009186
       924         -0.89469667        0.009186
       925         -0.89469812        0.009186
       926         -0.89470515        0.009186
       927         -0.89470915        0.009186
       928         -0.89471897        0.009186
       929         -0.89471900        0.009186
       930         -0.89471901        0.009186
       931         -0.89472082        0.009186
       932         -0.89472337        0.009186
       933         -0.89473067        0.009186
       934         -0.89473979        0.009186
       935         -0.89474053        0.009186
       936         -0.89474577        0.009186
       937         -0.89474817        0.009186
       938         -0.89474887        0.009186
       939         -0.89475125        0.009186
       940         -0.89475345        0.009186
       941         -0.89475709        0.009186
       942         -0.89475820        0.009186
       943         -0.89475942        0.009186
       944         -0.89476203        0.009186
       945         -0.89476352        0.009186
       946         -0.89476788        0.009186
       947         -0.89476892        0.009186
       948         -0.89476895        0.009186
       949         -0.89477132        0.009186
       950         -0.89477554        0.009186
       951         -0.89477756        0.009186
       952         -0.89478151        0.009186
       953         -0.89478440        0.009186
       954         -0.89478588        0.009186
       955         -0.89478764        0.009186
       956         -0.89478996        0.009186
       957         -0.89479057        0.009186
       958         -0.89479308        0.009186
       959         -0.89479694        0.009186
       960         -0.89480039        0.009186
       961         -0.89480425        0.009186
       962         -0.89480970        0.009186
       963         -0.89481707        0.009186
       964         -0.89483282        0.009186
       965         -0.89483389        0.009186
       966         -0.89484243        0.009186
       967         -0.89484397        0.009186
       968         -0.89485509        0.009186
       969         -0.89486131        0.009186
       970         -0.89486396        0.009186
       971         -0.89486970        0.009186
       972         -0.89486970        0.009186
       973         -0.89487655        0.009186
       974         -0.89487765        0.009186
       975         -0.89487861        0.009186
       976         -0.89488027        0.009186
       977         -0.89488139        0.009186
       978         -0.89488458        0.009186
       979         -0.89488470        0.009186
       980         -0.89488661        0.009186
       981         -0.89488948        0.009186
       982         -0.89489213        0.009186
       983         -0.89489527        0.009186
       984         -0.89489919        0.009186
       985         -0.89490112        0.009186
       986         -0.89490655        0.009186
       987         -0.89490852        0.009186
       988         -0.89491540        0.009186
       989         -0.89492904        0.009186
       990         -0.89492988        0.009186
       991         -0.89493093        0.009186
       992         -0.89493319        0.009186
       993         -0.89493411        0.009186
       994         -0.89493744        0.009186
       995         -0.89493868        0.009186
       996         -0.89494146        0.009186
       997         -0.89494926        0.009186
       998         -0.89495251        0.009186
       999         -0.89495369        0.009186
      1000         -0.89496148        0.009186
      1001         -0.89496269        0.009186
      1002         -0.89496614        0.009186
      1003         -0.89497279        0.009186
      1004         -0.89497599        0.009186
      1005         -0.89497741        0.009186
      1006         -0.89497977        0.009186
      1007         -0.89498358        0.009186
      1008         -0.89498504        0.009186
      1009         -0.89499149        0.009186
      1010         -0.89499635        0.009186
      1011         -0.89499664        0.009186
      1012         -0.89499735        0.009186
      1013         -0.89499980        0.009186
      1014         -0.89500493        0.009186
      1015         -0.89500780        0.009186
      1016         -0.89501179        0.009186
      1017         -0.89501910        0.009186
      1018         -0.89502056        0.009186
      1019         -0.89502300        0.009186
      1020         -0.89503103        0.009186
      1021         -0.89503161        0.009186
      1022         -0.89503369        0.008505
      1023         -0.89503439        0.008505
      1024         -0.89504059        0.008505
      1025         -0.89504510        0.008505
      1026         -0.89504603        0.008505
      1027         -0.89504654        0.008505
      1028         -0.89504835        0.008505
      1029         -0.89505261        0.008505
      1030         -0.89505705        0.008505
      1031         -0.89505902        0.008505
      1032         -0.89505920        0.008505
      1033         -0.89506295        0.008505
      1034         -0.89506461        0.008505
      1035         -0.89507523        0.008505
      1036         -0.89507743        0.008505
      1037         -0.89508179        0.008505
      1038         -0.89508371        0.008505
      1039         -0.89508887        0.008505
      1040         -0.89509336        0.008505
      1041         -0.89509765        0.008505
      1042         -0.89509848        0.008505
      1043         -0.89510476        0.008505
      1044         -0.89510859        0.008505
      1045         -0.89511334        0.008505
      1046         -0.89511351        0.008505
      1047         -0.89511599        0.008505
      1048         -0.89511647        0.008505
      1049         -0.89511775        0.008505
      1050         -0.89511922        0.008505
      1051         -0.89512193        0.008505
      1052         -0.89512543        0.008505
      1053         -0.89512597        0.008505
      1054         -0.89512650        0.008505
      1055         -0.89513009        0.008505
      1056         -0.89513274        0.008505
      1057         -0.89513673        0.008505
      1058         -0.89513773        0.008505
      1059         -0.89513858        0.008505
      1060         -0.89513900        0.008505
      1061         -0.89513915        0.008505
      1062         -0.89514904        0.008505
      1063         -0.89515376        0.008505
      1064         -0.89515428        0.008505
      1065         -0.89515472        0.008505
      1066         -0.89516236        0.008505
      1067         -0.89516585        0.008505
      1068         -0.89516910        0.008505
      1069         -0.89517485        0.008505
      1070         -0.89517611        0.008505
      1071         -0.89517721        0.008505
      1072         -0.89518160        0.008505
      1073         -0.89518387        0.008505
      1074         -0.89519086        0.008505
      1075         -0.89519150        0.008505
      1076         -0.89519297        0.008505
      1077         -0.89519320        0.008505
      1078         -0.89520175        0.008505
      1079         -0.89520392        0.008505
      1080         -0.89520692        0.008505
      1081         -0.89521651        0.008505
      1082         -0.89522383        0.008505
      1083         -0.89522733        0.008505
      1084         -0.89522922        0.008505
      1085         -0.89523127        0.008505
      1086         -0.89524107        0.008505
      1087         -0.89524445        0.008505
      1088         -0.89524874        0.008505
      1089         -0.89525140        0.008505
      1090         -0.89525211        0.008505
      1091         -0.89525657        0.008505
      1092         -0.89525678        0.008505
      1093         -0.89525702        0.008505
      1094         -0.89526007        0.008505
      1095         -0.89526542        0.008505
      1096         -0.89526914        0.008505
      1097         -0.89527327        0.008505
      1098         -0.89527332        0.008505
      1099         -0.89528058        0.008505
      1100         -0.89528360        0.008505
      1101         -0.89528714        0.008505
      1102         -0.89529108        0.008505
      1103         -0.89529356        0.008505
      1104         -0.89529397        0.008505
      1105         -0.89529454        0.008505
      1106         -0.89530527        0.008505
      1107         -0.89531041        0.008505
      1108         -0.89531218        0.008505
      1109         -0.89531931        0.008505
      1110         -0.89532223        0.008505
      1111         -0.89532249        0.008505
      1112         -0.89532738        0.008505
      1113         -0.89532967        0.008505
      1114         -0.89533247        0.008505
      1115         -0.89533690        0.008505
      1116         -0.89533794        0.008505
      1117         -0.89534561        0.008505
      1118         -0.89534612        0.008505
      1119         -0.89534685        0.008505
      1120         -0.89535933        0.008505
      1121         -0.89536397        0.008505
      1122         -0.89536943        0.008505
      1123         -0.89536960        0.008505
      1124         -0.89537333        0.008505
      1125         -0.89537697        0.008505
      1126         -0.89538384        0.008505
      1127         -0.89538634        0.008505
      1128         -0.89539109        0.008505
      1129         -0.89539161        0.008505
      1130         -0.89540259        0.008505
      1131         -0.89540317        0.008505
      1132         -0.89540564        0.008505
      1133         -0.89541052        0.008505
      1134         -0.89541204        0.008505
      1135         -0.89541367        0.008505
      1136         -0.89541501        0.008505
      1137         -0.89542095        0.008505
      1138         -0.89542458        0.008505
      1139         -0.89543313        0.008505
      1140         -0.89543324        0.008505
      1141         -0.89543588        0.008505
      1142         -0.89543675        0.008505
      1143         -0.89543877        0.008505
      1144         -0.89544396        0.008505
      1145         -0.89545291        0.008505
      1146         -0.89545615        0.008505
      1147         -0.89545869        0.008505
      1148         -0.89545912        0.008505
      1149         -0.89546131        0.008505
      1150         -0.89546306        0.008505
      1151         -0.89547127        0.008505
      1152         -0.89547598        0.008505
      1153         -0.89548415        0.008505
      1154         -0.89548432        0.008505
      1155         -0.89549040        0.008505
      1156         -0.89549347        0.008505
      1157         -0.89549568        0.008505
      1158         -0.89550050        0.008505
      1159         -0.89550477        0.008505
      1160         -0.89550729        0.008505
      1161         -0.89550955        0.008505
      1162         -0.89551566        0.008505
      1163         -0.89551578        0.008505
      1164         -0.89551840        0.008505
      1165         -0.89551900        0.008505
      1166         -0.89552002        0.008505
      1167         -0.89552041        0.008505
      1168         -0.89552330        0.008505
      1169         -0.89552982        0.008505
      1170         -0.89553354        0.008505
      1171         -0.89553395        0.008505
      1172         -0.89553726        0.008505
      1173         -0.89553872        0.008505
      1174         -0.89553877        0.008505
      1175         -0.89554709        0.008505
      1176         -0.89555046        0.008505
      1177         -0.89555412        0.008505
      1178         -0.89555790        0.008505
      1179         -0.89556671        0.008505
      1180         -0.89557014        0.008505
      1181         -0.89557341        0.008505
      1182         -0.89557593        0.008505
      1183         -0.89557614        0.008505
      1184         -0.89558375        0.008505
      1185         -0.89559120        0.008505
      1186         -0.89559422        0.008505
      1187         -0.89559731        0.008505
      1188         -0.89560358        0.008505
      1189         -0.89560792        0.008505
      1190         -0.89560942        0.008505
      1191         -0.89561267        0.008505
      1192         -0.89561390        0.008505
      1193         -0.89562846        0.008505
      1194         -0.89563020        0.008505
      1195         -0.89563473        0.008505
      1196         -0.89563873        0.008505
      1197         -0.89563944        0.008505
      1198         -0.89564094        0.008505
      1199         -0.89564314        0.008505
      1200         -0.89564498        0.008505
      1201         -0.89564623        0.008505
      1202         -0.89564838        0.008505
      1203         -0.89565100        0.008505
      1204         -0.89565401        0.008505
      1205         -0.89566440        0.008505
      1206         -0.89566652        0.008505
      1207         -0.89567280        0.008505
      1208         -0.89567678        0.008505
      1209         -0.89568006        0.008505
      1210         -0.89568832        0.008505
      1211         -0.89569505        0.008505
      1212         -0.89569539        0.008505
      1213         -0.89569673        0.008505
      1214         -0.89569935        0.008505
      1215         -0.89570099        0.008505
      1216         -0.89570143        0.008505
      1217         -0.89570441        0.008505
      1218         -0.89570640        0.008505
      1219         -0.89571131        0.008505
      1220         -0.89571553        0.008505
      1221         -0.89571611        0.008505
      1222         -0.89571656        0.008505
      1223         -0.89572355        0.008505
      1224         -0.89572483        0.008505
      1225         -0.89573670        0.008505
      1226         -0.89573896        0.008505
      1227         -0.89574034        0.008505
      1228         -0.89574615        0.008505
      1229         -0.89574961        0.008505
      1230         -0.89576167        0.008505
      1231         -0.89576314        0.008505
      1232         -0.89576643        0.008505
      1233         -0.89576775        0.008505
      1234         -0.89576828        0.008505
      1235         -0.89576893        0.008505
      1236         -0.89577287        0.008505
      1237         -0.89578457        0.008505
      1238         -0.89578677        0.008505
      1239         -0.89579016        0.008505
      1240         -0.89579170        0.008505
      1241         -0.89579293        0.008505
      1242         -0.89579667        0.008505
      1243         -0.89579772        0.008505
      1244         -0.89579788        0.008505
      1245         -0.89580287        0.008505
      1246         -0.89580574        0.008505
      1247         -0.89581178        0.008505
      1248         -0.89581626        0.008505
      1249         -0.89581631        0.008505
      1250         -0.89581815        0.008505
      1251         -0.89581920        0.008505
      1252         -0.89582326        0.008505
      1253         -0.89582358        0.008505
      1254         -0.89583393        0.008505
      1255         -0.89584315        0.008505
      1256         -0.89584439        0.008505
      1257         -0.89584841        0.008505
      1258         -0.89585721        0.008505
      1259         -0.89586191        0.008505
      1260         -0.89587359        0.008505
      1261         -0.89587377        0.008505
      1262         -0.89587631        0.008505
      1263         -0.89587966        0.008505
      1264         -0.89588892        0.008505
      1265         -0.89588922        0.008505
      1266         -0.89589073        0.008505
      1267         -0.89589351        0.008505
      1268         -0.89589679        0.008505
      1269         -0.89589699        0.008505
      1270         -0.89589946        0.008505
      1271         -0.89590356        0.008505
      1272         -0.89590732        0.008505
      1273         -0.89590758        0.008505
      1274         -0.89591041        0.008505
      1275         -0.89591062        0.008505
      1276         -0.89591199        0.008505
      1277         -0.89591242        0.008505
      1278         -0.89592289        0.008505
      1279         -0.89592840        0.008505
      1280         -0.89593437        0.008505
      1281         -0.89593505        0.008505
      1282         -0.89593959        0.008505
      1283         -0.89594218        0.008505
      1284         -0.89594551        0.008505
      1285         -0.89594634        0.008505
      1286         -0.89595024        0.008505
      1287         -0.89595035        0.008505
      1288         -0.89595128        0.008505
      1289         -0.89595350        0.008505
      1290         -0.89595385        0.008505
      1291         -0.89595564        0.008505
      1292         -0.89596940        0.008505
      1293         -0.89596954        0.008505
      1294         -0.89598139        0.008505
      1295         -0.89598208        0.008505
      1296         -0.89598233        0.008505
      1297         -0.89598472        0.008505
      1298         -0.89599042        0.008505
      1299         -0.89599239        0.008505
      1300         -0.89599481        0.008505
      1301         -0.89599537        0.008505
      1302         -0.89599689        0.008505
      1303         -0.89599912        0.008505
      1304         -0.89599968        0.008505
      1305         -0.89600055        0.008505
      1306         -0.89600357        0.008505
      1307         -0.89600769        0.008505
      1308         -0.89600931        0.008505
      1309         -0.89601437        0.008505
      1310         -0.89601497        0.008505
      1311         -0.89601634        0.008505
      1312         -0.89602167        0.008505
      1313         -0.89602387        0.008505
      1314         -0.89602836        0.008505
      1315         -0.89603278        0.008505
      1316         -0.89603307        0.008505
      1317         -0.89603487        0.008505
      1318         -0.89604530        0.008505
      1319         -0.89605461        0.008505
      1320         -0.89606023        0.008505
      1321         -0.89606685        0.008505
      1322         -0.89606956        0.008505
      1323         -0.89607104        0.008505
      1324         -0.89607847        0.008505
      1325         -0.89608082        0.008505
      1326         -0.89608093        0.008505
      1327         -0.89608238        0.008505
      1328         -0.89608566        0.008505
      1329         -0.89609597        0.008505
      1330         -0.89609611        0.008505
      1331         -0.89609728        0.008505
      1332         -0.89609771        0.008505
      1333         -0.89609970        0.008505
      1334         -0.89610005        0.008505
      1335         -0.89610277        0.008505
      1336         -0.89611855        0.008505
      1337         -0.89611948        0.008505
      1338         -0.89612184        0.008505
      1339         -0.89612522        0.008505
      1340         -0.89612552        0.008505
      1341         -0.89612790        0.008505
      1342         -0.89613178        0.008505
      1343         -0.89613398        0.008505
      1344         -0.89613678        0.008505
      1345         -0.89614221        0.008505
      1346         -0.89615246        0.008505
      1347         -0.89615628        0.008505
      1348         -0.89615709        0.008505
      1349         -0.89615991        0.008505
      1350         -0.89616061        0.008505
      1351         -0.89616473        0.008505
      1352         -0.89616824        0.008505
      1353         -0.89616865        0.008505
      1354         -0.89617637        0.008505
      1355         -0.89617762        0.008505
      1356         -0.89618149        0.008505
      1357         -0.89618254        0.008505
      1358         -0.89618406        0.008505
      1359         -0.89618690        0.008505
      1360         -0.89619319        0.008505
      1361         -0.89619618        0.008505
      1362         -0.89619832        0.008505
      1363         -0.89620213        0.008505
      1364         -0.89620725        0.008505
      1365         -0.89621234        0.008505
      1366         -0.89621564        0.008505
      1367         -0.89622050        0.008505
      1368         -0.89623162        0.008505
      1369         -0.89623495        0.008505
      1370         -0.89623596        0.008505
      1371         -0.89623744        0.008505
      1372         -0.89624427        0.008505
      1373         -0.89625093        0.008505
      1374         -0.89625429        0.008505
      1375         -0.89625547        0.008505
      1376         -0.89625630        0.008505
      1377         -0.89625945        0.008505
      1378         -0.89625946        0.008505
      1379         -0.89625947        0.008505
      1380         -0.89626337        0.008505
      1381         -0.89626544        0.008505
      1382         -0.89626589        0.008505
      1383         -0.89627174        0.008505
      1384         -0.89627527        0.008505
      1385         -0.89627846        0.008505
      1386         -0.89628093        0.008505
      1387         -0.89628215        0.008505
      1388         -0.89628482        0.008505
      1389         -0.89628495        0.008505
      1390         -0.89628554        0.008505
      1391         -0.89628913        0.008505
      1392         -0.89629255        0.008505
      1393         -0.89629444        0.008505
      1394         -0.89629477        0.008505
      1395         -0.89630059        0.008505
      1396         -0.89630464        0.008505
      1397         -0.89630605        0.008505
      1398         -0.89630879        0.008505
      1399         -0.89630988        0.008505
      1400         -0.89631179        0.008505
      1401         -0.89631529        0.008505
      1402         -0.89631949        0.008505
      1403         -0.89632048        0.008505
      1404         -0.89632220        0.008505
      1405         -0.89632297        0.008505
      1406         -0.89632616        0.008505
      1407         -0.89633003        0.008505
      1408         -0.89633310        0.008505
      1409         -0.89633402        0.008505
      1410         -0.89633447        0.008505
      1411         -0.89633640        0.008505
      1412         -0.89633641        0.008505
      1413         -0.89634405        0.008505
      1414         -0.89635120        0.008505
      1415         -0.89635544        0.008505
      1416         -0.89635755        0.008505
      1417         -0.89636063        0.008505
      1418         -0.89636439        0.008505
      1419         -0.89636459        0.008505
      1420         -0.89637128        0.008505
      1421         -0.89637506        0.008505
      1422         -0.89637516        0.008505
      1423         -0.89637807        0.008505
      1424         -0.89638089        0.008505
      1425         -0.89638116        0.008505
      1426         -0.89638564        0.008505
      1427         -0.89639258        0.008505
      1428         -0.89639355        0.008505
      1429         -0.89639874        0.008505
      1430         -0.89640390        0.008505
      1431         -0.89640703        0.008505
      1432         -0.89640894        0.008505
      1433         -0.89641128        0.008505
      1434         -0.89641258        0.008505
      1435         -0.89641806        0.008505
      1436         -0.89642055        0.008505
      1437         -0.89642082        0.008505
      1438         -0.89642663        0.008505
      1439         -0.89642836        0.008505
      1440         -0.89643648        0.008505
      1441         -0.89643727        0.008505
      1442         -0.89644166        0.008505
      1443         -0.89644374        0.008505
      1444         -0.89644773        0.008505
      1445         -0.89644829        0.008505
      1446         -0.89644900        0.008505
      1447         -0.89644974        0.008505
      1448         -0.89645627        0.008505
      1449         -0.89646244        0.008505
      1450         -0.89646445        0.008505
      1451         -0.89646855        0.008505
      1452         -0.89647082        0.008505
      1453         -0.89647529        0.008505
      1454         -0.89648155        0.008505
      1455         -0.89648386        0.008505
      1456         -0.89648713        0.008505
      1457         -0.89648811        0.008505
      1458         -0.89649039        0.008505
      1459         -0.89649702        0.008505
      1460         -0.89650577        0.008505
      1461         -0.89651039        0.008505
      1462         -0.89651400        0.008505
      1463         -0.89651798        0.008505
      1464         -0.89652493        0.008505
      1465         -0.89652868        0.008505
      1466         -0.89653353        0.008505
      1467         -0.89653667        0.008505
      1468         -0.89653855        0.008505
      1469         -0.89654342        0.008505
      1470         -0.89654450        0.008505
      1471         -0.89654569        0.008505
      1472         -0.89654772        0.008505
      1473         -0.89654998        0.008505
      1474         -0.89655562        0.008505
      1475         -0.89655593        0.008505
      1476         -0.89655717        0.008505
      1477         -0.89655719        0.008505
      1478         -0.89656286        0.008505
      1479         -0.89656299        0.008505
      1480         -0.89656911        0.008505
      1481         -0.89657002        0.008505
      1482         -0.89657269        0.008505
      1483         -0.89657829        0.008505
      1484         -0.89658608        0.008505
      1485         -0.89659146        0.008505
      1486         -0.89659371        0.008505
      1487         -0.89659753        0.008505
      1488         -0.89660017        0.008505
      1489         -0.89660309        0.008505
      1490         -0.89660573        0.008505
      1491         -0.89661031        0.008505
      1492         -0.89661045        0.008505
      1493         -0.89661770        0.008505
      1494         -0.89662420        0.008505
      1495         -0.89662728        0.008505
      1496         -0.89663105        0.008505
      1497         -0.89664285        0.008505
      1498         -0.89664532        0.008505
      1499         -0.89664698        0.008505
      1500         -0.89664771        0.008505
      1501         -0.89664976        0.008505
      1502         -0.89664992        0.008505
      1503         -0.89665842        0.008505
      1504         -0.89665947        0.008505
      1505         -0.89666219        0.008505
      1506         -0.89667757        0.008505
      1507         -0.89668355        0.008505
      1508         -0.89668496        0.008505
      1509         -0.89668556        0.008505
      1510         -0.89668576        0.008505
      1511         -0.89669151        0.008505
      1512         -0.89669342        0.008505
      1513         -0.89669944        0.008505
      1514         -0.89670552        0.008505
      1515         -0.89670581        0.008505
      1516         -0.89671149        0.008505
      1517         -0.89671487        0.008505
      1518         -0.89672429        0.008505
      1519         -0.89673046        0.008505
      1520         -0.89673132        0.008505
      1521         -0.89673376        0.008505
      1522         -0.89673516        0.008505
      1523         -0.89673581        0.008505
      1524         -0.89673644        0.008505
      1525         -0.89674756        0.008505
      1526         -0.89674767        0.008505
      1527         -0.89674841        0.008505
      1528         -0.89674957        0.008505
      1529         -0.89675735        0.008505
      1530         -0.89676083        0.008505
      1531         -0.89676244        0.008505
      1532         -0.89676383        0.008505
      1533         -0.89676457        0.008505
      1534         -0.89676731        0.008505
      1535         -0.89676791        0.008505
      1536         -0.89676936        0.008505
      1537         -0.89676990        0.008505
      1538         -0.89677548        0.008505
      1539         -0.89677742        0.008505
      1540         -0.89677801        0.008505
      1541         -0.89678060        0.008505
      1542         -0.89678113        0.008505
      1543         -0.89678658        0.008505
      1544         -0.89679132        0.008505
      1545         -0.89679323        0.008505
      1546         -0.89679424        0.008505
      1547         -0.89679750        0.008505
      1548         -0.89679995        0.008505
      1549         -0.89680587        0.008505
      1550         -0.89680806        0.008505
      1551         -0.89680842        0.008505
[...]


 global array: Ca[1:10,1:10],  handle: -981 

                     1                       2                       3                       4                       5                       6  
       ----------------------- ----------------------- ----------------------- ----------------------- ----------------------- -----------------------
   1       0.88582,    0.15863    -0.41161,   -0.07322     0.06262,    0.02511    -0.03428,    0.05832    -0.00221,   -0.01710    -0.00483,    0.02538
   2      -0.25054,   -0.34084    -0.52897,   -0.72462     0.01150,    0.04021     0.00358,    0.02719    -0.04851,    0.02699    -0.02245,   -0.00374
   3      -0.05171,    0.02838     0.03807,   -0.03971     0.60754,   -0.63252    -0.30188,    0.34684    -0.02502,    0.00358     0.01440,   -0.06419
   4       0.04089,    0.02573    -0.01036,   -0.05676     0.31131,   -0.34311     0.54076,   -0.69096    -0.00158,    0.02568    -0.01494,    0.02112
   5      -0.02694,   -0.01394     0.01654,    0.00638    -0.04633,   -0.01671     0.07608,   -0.04429     0.20450,   -0.34081     0.17476,   -0.31397
   6       0.01576,   -0.02568    -0.02460,   -0.08306    -0.02622,   -0.02239     0.01989,   -0.03330     0.34963,   -0.20829     0.32286,   -0.15439
   7      -0.01682,    0.02582    -0.04775,    0.00034     0.02404,    0.02680    -0.01700,    0.03522     0.46124,   -0.19307     0.35811,   -0.17942
   8       0.02561,    0.01492    -0.03057,   -0.02984     0.00111,    0.03156     0.00489,   -0.01531    -0.22832,    0.23928     0.30424,   -0.34363
   9      -0.00729,   -0.02901     0.02618,   -0.02916     0.00730,    0.00796    -0.04505,    0.00383     0.39961,    0.05558    -0.41671,   -0.09983
  10       0.02186,   -0.01956    -0.00790,   -0.02129     0.05157,    0.03446     0.00570,   -0.01661     0.38478,   -0.03849    -0.41951,    0.07707

                     7                       8                       9                      10  
       ----------------------- ----------------------- ----------------------- -----------------------
   1      -0.01174,   -0.01224     0.03472,   -0.04622    -0.00305,   -0.02823     0.01111,    0.02710
   2       0.00339,    0.03904     0.03194,   -0.01253     0.02890,   -0.07525    -0.01681,   -0.02404
   3       0.01576,   -0.02130    -0.02596,   -0.06709    -0.00314,    0.01498     0.00288,    0.04225
   4      -0.04371,    0.04149     0.00394,    0.01376     0.00734,    0.03145     0.05989,   -0.00748
   5       0.25659,   -0.37866     0.32265,   -0.54338     0.16778,   -0.24423    -0.04590,    0.05487
   6      -0.00143,   -0.04544    -0.22090,    0.12916    -0.51011,    0.30891    -0.45832,    0.24890
   7      -0.40888,    0.20847    -0.28495,    0.08334     0.26432,   -0.13111     0.39659,   -0.20089
   8       0.34491,   -0.39723    -0.16328,    0.18629    -0.16153,    0.21611     0.33798,   -0.38841
   9       0.00594,   -0.02992     0.29793,    0.08307    -0.53870,   -0.10359     0.49067,    0.10362
  10       0.53786,   -0.07016    -0.52568,    0.06122     0.29437,    0.02335    -0.03076,    0.02348

                   WFN1 Final beta Correlation Function Analysis
                   ---------------------------------------------


 global array: Cb[1:10,1:10],  handle: -980 

                     1                       2                       3                       4                       5                       6  
       ----------------------- ----------------------- ----------------------- ----------------------- ----------------------- -----------------------
   1       0.88582,    0.15863    -0.41161,   -0.07322     0.06262,    0.02511    -0.03428,    0.05832    -0.00221,   -0.01710    -0.00483,    0.02538
   2      -0.25054,   -0.34084    -0.52897,   -0.72462     0.01150,    0.04021     0.00358,    0.02719    -0.04851,    0.02699    -0.02245,   -0.00374
   3      -0.05171,    0.02838     0.03807,   -0.03971     0.60754,   -0.63252    -0.30188,    0.34684    -0.02502,    0.00358     0.01440,   -0.06419
   4       0.04089,    0.02573    -0.01036,   -0.05676     0.31131,   -0.34311     0.54076,   -0.69096    -0.00158,    0.02568    -0.01494,    0.02112
   5      -0.02694,   -0.01394     0.01654,    0.00638    -0.04633,   -0.01671     0.07608,   -0.04429     0.20450,   -0.34081     0.17476,   -0.31397
   6       0.01576,   -0.02568    -0.02460,   -0.08306    -0.02622,   -0.02239     0.01989,   -0.03330     0.34963,   -0.20829     0.32286,   -0.15439
   7      -0.01682,    0.02582    -0.04775,    0.00034     0.02404,    0.02680    -0.01700,    0.03522     0.46124,   -0.19307     0.35811,   -0.17942
   8       0.02561,    0.01492    -0.03057,   -0.02984     0.00111,    0.03156     0.00489,   -0.01531    -0.22832,    0.23928     0.30424,   -0.34363
   9      -0.00729,   -0.02901     0.02618,   -0.02916     0.00730,    0.00796    -0.04505,    0.00383     0.39961,    0.05558    -0.41671,   -0.09983
  10       0.02186,   -0.01956    -0.00790,   -0.02129     0.05157,    0.03446     0.00570,   -0.01661     0.38478,   -0.03849    -0.41951,    0.07707

                     7                       8                       9                      10  
       ----------------------- ----------------------- ----------------------- -----------------------
   1      -0.01174,   -0.01224     0.03472,   -0.04622    -0.00305,   -0.02823     0.01111,    0.02710
   2       0.00339,    0.03904     0.03194,   -0.01253     0.02890,   -0.07525    -0.01681,   -0.02404
   3       0.01576,   -0.02130    -0.02596,   -0.06709    -0.00314,    0.01498     0.00288,    0.04225
   4      -0.04371,    0.04149     0.00394,    0.01376     0.00734,    0.03145     0.05989,   -0.00748
   5       0.25659,   -0.37866     0.32265,   -0.54338     0.16778,   -0.24423    -0.04590,    0.05487
   6      -0.00143,   -0.04544    -0.22090,    0.12916    -0.51011,    0.30891    -0.45832,    0.24890
   7      -0.40888,    0.20847    -0.28495,    0.08334     0.26432,   -0.13111     0.39659,   -0.20089
   8       0.34491,   -0.39723    -0.16328,    0.18629    -0.16153,    0.21611     0.33798,   -0.38841
   9       0.00594,   -0.02992     0.29793,    0.08307    -0.53870,   -0.10359     0.49067,    0.10362
  10       0.53786,   -0.07016    -0.52568,    0.06122     0.29437,    0.02335    -0.03076,    0.02348

                     WFN1 Final Alpha Natural Orbital Analysis
                     -----------------------------------------

 Vector    1  Occ=8.098323D-01  E= 0.000000D+00
              MO Center=  7.6D-06,  1.0D-05,  7.9D-05, r^2= 2.2D+00
   Bfn.  Coefficient  Atom+Function         Bfn.  Coefficient  Atom+Function  
  ----- ------------  ---------------      ----- ------------  ---------------
     2      0.496306  1 H  s                  7      0.496374  2 H  s          
     1      0.222100  1 H  s                  6      0.222080  2 H  s          

 Vector    2  Occ=1.789426D-01  E= 0.000000D+00
              MO Center= -1.3D-06, -3.8D-05, -8.0D-05, r^2= 2.4D+00
   Bfn.  Coefficient  Atom+Function         Bfn.  Coefficient  Atom+Function  
  ----- ------------  ---------------      ----- ------------  ---------------
     2     -0.535157  1 H  s                  7      0.535083  2 H  s          
     1     -0.286908  1 H  s                  6      0.286952  2 H  s          

 Vector    3  Occ=3.479551D-03  E= 0.000000D+00
              MO Center= -2.9D-04, -8.5D-04, -2.1D-03, r^2= 2.3D+00
   Bfn.  Coefficient  Atom+Function         Bfn.  Coefficient  Atom+Function  
  ----- ------------  ---------------      ----- ------------  ---------------
     1      0.894876  1 H  s                  6      0.894719  2 H  s          
     2     -0.681060  1 H  s                  7     -0.680687  2 H  s          
     5     -0.037906  1 H  pz                10      0.030931  2 H  pz         

 Vector    4  Occ=2.334023D-03  E= 0.000000D+00
              MO Center= -1.5D-03,  7.6D-04,  8.4D-04, r^2= 3.0D+00
   Bfn.  Coefficient  Atom+Function         Bfn.  Coefficient  Atom+Function  
  ----- ------------  ---------------      ----- ------------  ---------------
     2      0.930420  1 H  s                  7     -0.930810  2 H  s          
     1     -0.919372  1 H  s                  6      0.919562  2 H  s          
    10     -0.052723  2 H  pz                 5     -0.044619  1 H  pz         

 Vector    5  Occ=9.202145D-04  E= 0.000000D+00
              MO Center= -1.8D-04,  2.2D-04, -2.7D-04, r^2= 1.7D+00
   Bfn.  Coefficient  Atom+Function         Bfn.  Coefficient  Atom+Function  
  ----- ------------  ---------------      ----- ------------  ---------------
     3      0.581976  1 H  px                 8      0.520877  2 H  px         
     9     -0.477346  2 H  py                 4     -0.401644  1 H  py         
    10      0.025902  2 H  pz         

 Vector    6  Occ=9.081169D-04  E= 0.000000D+00
              MO Center=  6.0D-04,  6.9D-04,  1.3D-04, r^2= 1.7D+00
   Bfn.  Coefficient  Atom+Function         Bfn.  Coefficient  Atom+Function  
  ----- ------------  ---------------      ----- ------------  ---------------
     9      0.559850  2 H  py                 4      0.545204  1 H  py         
     3      0.449282  1 H  px                 8      0.429560  2 H  px         
    10      0.044496  2 H  pz                 5      0.025646  1 H  pz         

 Vector    7  Occ=9.495425D-04  E= 0.000000D+00
              MO Center=  1.9D-04,  1.9D-04, -6.7D-05, r^2= 1.7D+00
   Bfn.  Coefficient  Atom+Function         Bfn.  Coefficient  Atom+Function  
  ----- ------------  ---------------      ----- ------------  ---------------
     4     -0.581882  1 H  py                 9      0.521578  2 H  py         
     8      0.476459  2 H  px                 3     -0.401678  1 H  px         
    10      0.030329  2 H  pz         

 Vector    8  Occ=8.786348D-04  E= 0.000000D+00
              MO Center=  1.2D-03, -9.4D-04,  2.6D-04, r^2= 1.7D+00
   Bfn.  Coefficient  Atom+Function         Bfn.  Coefficient  Atom+Function  
  ----- ------------  ---------------      ----- ------------  ---------------
     8     -0.559753  2 H  px                 3      0.545481  1 H  px         
     4     -0.449532  1 H  py                 9      0.431384  2 H  py         
    10     -0.025912  2 H  pz         

 Vector    9  Occ=8.946913D-04  E= 0.000000D+00
              MO Center= -6.0D-05,  1.5D-08,  2.1D-03, r^2= 1.7D+00
   Bfn.  Coefficient  Atom+Function         Bfn.  Coefficient  Atom+Function  
  ----- ------------  ---------------      ----- ------------  ---------------
     5      0.705778  1 H  pz                10     -0.706661  2 H  pz         
     2     -0.081314  1 H  s                  1      0.073850  1 H  s          
     7     -0.070097  2 H  s                  6      0.062779  2 H  s          
     8      0.039890  2 H  px         

 Vector   10  Occ=8.603256D-04  E= 0.000000D+00
              MO Center=  7.2D-05, -4.5D-05, -8.1D-04, r^2= 1.8D+00
   Bfn.  Coefficient  Atom+Function         Bfn.  Coefficient  Atom+Function  
  ----- ------------  ---------------      ----- ------------  ---------------
     5     -0.707295  1 H  pz                10     -0.703815  2 H  pz         
     7      0.132678  2 H  s                  2     -0.125756  1 H  s          
     6     -0.105593  2 H  s                  1      0.096668  1 H  s          
     8      0.047161  2 H  px         


                     WFN1 Final Beta Natural Orbital Analysis
                     ----------------------------------------

 Vector    1  Occ=8.098323D-01  E= 0.000000D+00
              MO Center=  7.6D-06,  1.0D-05,  7.9D-05, r^2= 2.2D+00
   Bfn.  Coefficient  Atom+Function         Bfn.  Coefficient  Atom+Function  
  ----- ------------  ---------------      ----- ------------  ---------------
     2      0.496306  1 H  s                  7      0.496374  2 H  s          
     1      0.222100  1 H  s                  6      0.222080  2 H  s          

 Vector    2  Occ=1.789426D-01  E= 0.000000D+00
              MO Center= -1.3D-06, -3.8D-05, -8.0D-05, r^2= 2.4D+00
   Bfn.  Coefficient  Atom+Function         Bfn.  Coefficient  Atom+Function  
  ----- ------------  ---------------      ----- ------------  ---------------
     2     -0.535157  1 H  s                  7      0.535083  2 H  s          
     1     -0.286908  1 H  s                  6      0.286952  2 H  s          

 Vector    3  Occ=3.479551D-03  E= 0.000000D+00
              MO Center= -2.9D-04, -8.5D-04, -2.1D-03, r^2= 2.3D+00
   Bfn.  Coefficient  Atom+Function         Bfn.  Coefficient  Atom+Function  
  ----- ------------  ---------------      ----- ------------  ---------------
     1      0.894876  1 H  s                  6      0.894719  2 H  s          
     2     -0.681060  1 H  s                  7     -0.680687  2 H  s          
     5     -0.037906  1 H  pz                10      0.030931  2 H  pz         

 Vector    4  Occ=2.334023D-03  E= 0.000000D+00
              MO Center= -1.5D-03,  7.6D-04,  8.4D-04, r^2= 3.0D+00
   Bfn.  Coefficient  Atom+Function         Bfn.  Coefficient  Atom+Function  
  ----- ------------  ---------------      ----- ------------  ---------------
     2      0.930420  1 H  s                  7     -0.930810  2 H  s          
     1     -0.919372  1 H  s                  6      0.919562  2 H  s          
    10     -0.052723  2 H  pz                 5     -0.044619  1 H  pz         

 Vector    5  Occ=9.202145D-04  E= 0.000000D+00
              MO Center= -1.8D-04,  2.2D-04, -2.7D-04, r^2= 1.7D+00
   Bfn.  Coefficient  Atom+Function         Bfn.  Coefficient  Atom+Function  
  ----- ------------  ---------------      ----- ------------  ---------------
     3      0.581976  1 H  px                 8      0.520877  2 H  px         
     9     -0.477346  2 H  py                 4     -0.401644  1 H  py         
    10      0.025902  2 H  pz         

 Vector    6  Occ=9.081169D-04  E= 0.000000D+00
              MO Center=  6.0D-04,  6.9D-04,  1.3D-04, r^2= 1.7D+00
   Bfn.  Coefficient  Atom+Function         Bfn.  Coefficient  Atom+Function  
  ----- ------------  ---------------      ----- ------------  ---------------
     9      0.559850  2 H  py                 4      0.545204  1 H  py         
     3      0.449282  1 H  px                 8      0.429560  2 H  px         
    10      0.044496  2 H  pz                 5      0.025646  1 H  pz         

 Vector    7  Occ=9.495425D-04  E= 0.000000D+00
              MO Center=  1.9D-04,  1.9D-04, -6.7D-05, r^2= 1.7D+00
   Bfn.  Coefficient  Atom+Function         Bfn.  Coefficient  Atom+Function  
  ----- ------------  ---------------      ----- ------------  ---------------
     4     -0.581882  1 H  py                 9      0.521578  2 H  py         
     8      0.476459  2 H  px                 3     -0.401678  1 H  px         
    10      0.030329  2 H  pz         

 Vector    8  Occ=8.786348D-04  E= 0.000000D+00
              MO Center=  1.2D-03, -9.4D-04,  2.6D-04, r^2= 1.7D+00
   Bfn.  Coefficient  Atom+Function         Bfn.  Coefficient  Atom+Function  
  ----- ------------  ---------------      ----- ------------  ---------------
     8     -0.559753  2 H  px                 3      0.545481  1 H  px         
     4     -0.449532  1 H  py                 9      0.431384  2 H  py         
    10     -0.025912  2 H  pz         

 Vector    9  Occ=8.946913D-04  E= 0.000000D+00
              MO Center= -6.0D-05,  1.5D-08,  2.1D-03, r^2= 1.7D+00
   Bfn.  Coefficient  Atom+Function         Bfn.  Coefficient  Atom+Function  
  ----- ------------  ---------------      ----- ------------  ---------------
     5      0.705778  1 H  pz                10     -0.706661  2 H  pz         
     2     -0.081314  1 H  s                  1      0.073850  1 H  s          
     7     -0.070097  2 H  s                  6      0.062779  2 H  s          
     8      0.039890  2 H  px         

 Vector   10  Occ=8.603256D-04  E= 0.000000D+00
              MO Center=  7.2D-05, -4.5D-05, -8.1D-04, r^2= 1.8D+00
   Bfn.  Coefficient  Atom+Function         Bfn.  Coefficient  Atom+Function  
  ----- ------------  ---------------      ----- ------------  ---------------
     5     -0.707295  1 H  pz                10     -0.703815  2 H  pz         
     7      0.132678  2 H  s                  2     -0.125756  1 H  s          
     6     -0.105593  2 H  s                  1      0.096668  1 H  s          
     8      0.047161  2 H  px         


 Task  times  cpu:     3111.4s     wall:     3621.4s
 Summary of allocated global arrays
-----------------------------------
  No active global arrays



                         GA Statistics for process    0
                         ------------------------------

       create   destroy   get      put      acc     scatter   gather  read&inc
calls:   44       44     1.13e+09 4.85e+05 6.44e+05    0        0       11     
number of processes/call 1.00e+00 1.00e+00 1.00e+00 0.00e+00 0.00e+00
bytes total:             9.05e+11 5.16e+08 6.44e+08 0.00e+00 0.00e+00 8.80e+01
bytes remote:            0.00e+00 0.00e+00 0.00e+00 0.00e+00 0.00e+00 0.00e+00
Max memory consumed for GA by this process: 268000 bytes
MA_summarize_allocated_blocks: starting scan ...
MA_summarize_allocated_blocks: scan completed: 0 heap blocks, 0 stack blocks
MA usage statistics:

	allocation statistics:
					      heap	     stack
					      ----	     -----
	current number of blocks	         0	         0
	maximum number of blocks	        19	        17
	current total bytes		         0	         0
	maximum total bytes		   3205432	  22508664
	maximum total K-bytes		      3206	     22509
	maximum total M-bytes		         4	        23


                                NWChem Input Module
                                -------------------





                                     CITATION
                                     --------
                Please cite the following reference when publishing
                           results obtained with NWChem:

                 M. Valiev, E.J. Bylaska, N. Govind, K. Kowalski,
              T.P. Straatsma, H.J.J. van Dam, D. Wang, J. Nieplocha,
                        E. Apra, T.L. Windus, W.A. de Jong
                 "NWChem: a comprehensive and scalable open-source
                  solution for large scale molecular simulations"
                      Comput. Phys. Commun. 181, 1477 (2010)
                           doi:10.1016/j.cpc.2010.04.018

                                      AUTHORS
                                      -------
          E. Apra, E. J. Bylaska, W. A. de Jong, N. Govind, K. Kowalski,
       T. P. Straatsma, M. Valiev, H. J. J. van Dam, D. Wang, T. L. Windus,
        J. Hammond, J. Autschbach, K. Bhaskaran-Nair, J. Brabec, K. Lopata,
    S. A. Fischer, S. Krishnamoorthy, M. Jacquelin, W. Ma, M. Klemm, O. Villa,
      Y. Chen, V. Anisimov, F. Aquino, S. Hirata, M. T. Hackler, V. Konjkov,
      T. Risthaus, M. Malagoli, A. Marenich, A. Otero-de-la-Roza, J. Mullin,
        P. Nichols, R. Peverati, J. Pittner, Y. Zhao, P.-D. Fan, A. Fonari,
       M. Williamson, R. J. Harrison, J. R. Rehr, M. Dupuis, D. Silverstein,
    D. M. A. Smith, J. Nieplocha, V. Tipparaju, M. Krishnan, B. E. Van Kuiken,
        A. Vazquez-Mayagoitia, L. Jensen, M. Swart, Q. Wu, T. Van Voorhis,
     A. A. Auer, M. Nooijen, L. D. Crosby, E. Brown, G. Cisneros, G. I. Fann,
   H. Fruchtl, J. Garza, K. Hirao, R. A. Kendall, J. A. Nichols, K. Tsemekhman,
    K. Wolinski, J. Anchell, D. E. Bernholdt, P. Borowski, T. Clark, D. Clerc,
   H. Dachsel, M. J. O. Deegan, K. Dyall, D. Elwood, E. Glendening, M. Gutowski,
   A. C. Hess, J. Jaffe, B. G. Johnson, J. Ju, R. Kobayashi, R. Kutteh, Z. Lin,
   R. Littlefield, X. Long, B. Meng, T. Nakajima, S. Niu, L. Pollack, M. Rosing,
   K. Glaesemann, G. Sandrone, M. Stave, H. Taylor, G. Thomas, J. H. van Lenthe,
                               A. T. Wong, Z. Zhang.

 Total times  cpu:     3111.4s     wall:     3621.4s
