 argument  1 = input-wf.nw



============================== echo of input deck ==============================
echo
start wfn1_dat
geometry units au noautoz
  H 0 0 -.69434600000000000000
  H 0 0  .69434600000000000000
  symmetry cs
end
basis
  H library 6-31g**
end
set wfn1:input_vectors "atomic"
set wfn1:solver "monte-carlo"
set wfn1:print_error F
set wfn1:t_initial 0.1
#set wfn1:corr_expr "wfn1_mx"
set wfn1:corr_expr "wfn1c"
set wfn1:t_bath 0.0
set wfn1:maxit  20000
task wfn1 energy
================================================================================


                                         
                                         


              Northwest Computational Chemistry Package (NWChem) 6.8
              ------------------------------------------------------


                    Environmental Molecular Sciences Laboratory
                       Pacific Northwest National Laboratory
                                Richland, WA 99352

                              Copyright (c) 1994-2015
                       Pacific Northwest National Laboratory
                            Battelle Memorial Institute

             NWChem is an open-source computational chemistry package
                        distributed under the terms of the
                      Educational Community License (ECL) 2.0
             A copy of the license is included with this distribution
                              in the LICENSE.TXT file

                                  ACKNOWLEDGMENT
                                  --------------

            This software and its documentation were developed at the
            EMSL at Pacific Northwest National Laboratory, a multiprogram
            national laboratory, operated for the U.S. Department of Energy
            by Battelle under Contract Number DE-AC05-76RL01830. Support
            for this work was provided by the Department of Energy Office
            of Biological and Environmental Research, Office of Basic
            Energy Sciences, and the Office of Advanced Scientific Computing.


           Job information
           ---------------

    hostname        = erato
    program         = ../../../bin/LINUX64/nwchem
    date            = Mon Mar  1 09:59:12 2021

    compiled        = Sun_Feb_28_18:02:42_2021
    source          = /home/hvandam/nwchem-1-wfn1
    nwchem branch   = Development
    nwchem revision = nwchem_on_git-124-gad72d19fff205e319ffbbf2bca37a04ded6ad57b
    ga revision     = nwchem_on_git-124-gad72d19
    use scalapack   = F
    input           = input-wf.nw
    prefix          = wfn1_dat.
    data base       = ./wfn1_dat.db
    status          = startup
    nproc           =        1
    time left       =     -1s



           Memory information
           ------------------

    heap     =   13107198 doubles =    100.0 Mbytes
    stack    =   13107195 doubles =    100.0 Mbytes
    global   =   26214400 doubles =    200.0 Mbytes (distinct from heap & stack)
    total    =   52428793 doubles =    400.0 Mbytes
    verify   = yes
    hardfail = no 


           Directory information
           ---------------------

  0 permanent = .
  0 scratch   = .




                                NWChem Input Module
                                -------------------


 Turning off AUTOSYM since
 SYMMETRY directive was detected!



                             Geometry "geometry" -> ""
                             -------------------------

 Output coordinates in a.u. (scale by  1.000000000 to convert to a.u.)

  No.       Tag          Charge          X              Y              Z
 ---- ---------------- ---------- -------------- -------------- --------------
    1 H                    1.0000     0.00000000     0.00000000    -0.69434600
    2 H                    1.0000     0.00000000     0.00000000     0.69434600

      Atomic Mass 
      ----------- 

      H                  1.007825


 Effective nuclear repulsion energy (a.u.)       0.7201020817

            Nuclear Dipole moment (a.u.) 
            ----------------------------
        X                 Y               Z
 ---------------- ---------------- ----------------
     0.0000000000     0.0000000000     0.0000000000

      Symmetry information
      --------------------

 Group name             Cs        
 Group number              2
 Group order               2
 No. of unique centers     1

      Symmetry unique atoms

     1


            XYZ format geometry
            -------------------
     2
 geometry
 H                     0.00000000     0.00000000    -0.36743211
 H                     0.00000000     0.00000000     0.36743211

                      Basis "ao basis" -> "" (cartesian)
                      -----
  H (Hydrogen)
  ------------
            Exponent  Coefficients 
       -------------- ---------------------------------------------------------
  1 S  1.87311370E+01  0.033495
  1 S  2.82539370E+00  0.234727
  1 S  6.40121700E-01  0.813757

  2 S  1.61277800E-01  1.000000

  3 P  1.10000000E+00  1.000000



 Summary of "ao basis" -> "" (cartesian)
 ------------------------------------------------------------------------------
       Tag                 Description            Shells   Functions and Types
 ---------------- ------------------------------  ------  ---------------------
 H                          6-31g**                  3        5   2s1p



                                NWChem WFN1 Module
                                ------------------



          No. of electrons :     2
           Alpha electrons :     1
            Beta electrons :     1
          Charge           :     0
          Spin multiplicity:     1

 HvD: wfn1_inpdft
 HvD: nquad_task =                     1
 HvD: iangquad   =                     0
 HvD: gridtype   = user      
 HvD: leb        =  T
 HvD: radgrid    = murakn    
 HvD: trunc_neigh=  T
 HvD: lssw       =  T
 HvD: whichssw   = erf1    
 HvD: mxnrad     =                     0
 HvD: mxnang     =                     0
 HVD: wfn1: movecs_in  = atomic                                                                                                                                                                                                                                                          
 HVD: wfn1: movecs_out = ./wfn1_dat.movecs                                                                                                                                                                                                                                               

      Superposition of Atomic Density Guess
      -------------------------------------

 Sum of atomic energies:          -0.99646508

      Non-variational initial energy
      ------------------------------

 Total energy =      -0.847150
 1-e energy   =      -2.225539
 2-e energy   =       0.658288
 HOMO         =      -0.585950
 LUMO         =       0.176834

 iteration              energy           error
 ---------              ------           -----
         0         -1.13037996        0.200000
         1         -1.13057328        0.200000
         2         -1.13060049        0.116653
         3         -1.13074749        0.100000
         4         -1.13088425        0.100000
         5         -1.13096126        0.100000
         6         -1.13110819        0.100000
         7         -1.13133393        0.100000
         8         -1.13147836        0.085724
         9         -1.13148753        0.068040
        10         -1.13160469        0.062996
        11         -1.13163669        0.062996
        12         -1.13172153        0.058326
        13         -1.13172629        0.050000
        14         -1.13176294        0.050000
        15         -1.13180305        0.039685
        16         -1.13187554        0.036743
        17         -1.13191189        0.034020
        18         -1.13199417        0.034020
        19         -1.13200026        0.031498
        20         -1.13204781        0.015749
        21         -1.13206759        0.011573
        22         -1.13207366        0.011573
        23         -1.13209408        0.009921
        24         -1.13209757        0.009186
        25         -1.13213661        0.009186
        26         -1.13213925        0.009186
        27         -1.13214233        0.009186
        28         -1.13219858        0.009186
        29         -1.13220068        0.008505
        30         -1.13222105        0.008505
        31         -1.13225465        0.005358
        32         -1.13225832        0.004252
        33         -1.13226438        0.001563
        34         -1.13226928        0.001447
        35         -1.13228610        0.001447
        36         -1.13228647        0.001339
        37         -1.13228717        0.001148
        38         -1.13229109        0.001148
        39         -1.13229825        0.000984
        40         -1.13230855        0.000532
        41         -1.13230901        0.000492
        42         -1.13231209        0.000456
        43         -1.13231357        0.000287
        44         -1.13231889        0.000287
        45         -1.13232433        0.000287
        46         -1.13232560        0.000181
        47         -1.13232592        0.000181
        48         -1.13232938        0.000181
        49         -1.13233014        0.000155
        50         -1.13233158        0.000123
        51         -1.13233169        0.000078
        52         -1.13233232        0.000057
        53         -1.13233746        0.000053
        54         -1.13234054        0.000053
        55         -1.13234143        0.000042
        56         -1.13234334        0.000018
        57         -1.13234370        0.000013
        58         -1.13234386        0.000013
        59         -1.13234386        0.000010
        60         -1.13234471        0.000008
        61         -1.13234472        0.000006
        62         -1.13234537        0.000006
        63         -1.13234585        0.000004
        64         -1.13234655        0.000004
        65         -1.13234662        0.000002
        66         -1.13234680        0.000002
        67         -1.13234691        0.000002
        68         -1.13234696        0.000002
        69         -1.13234710        0.000002
        70         -1.13234733        0.000001
        71         -1.13234760        0.000001

 Reached Convergence

 WFN1                     :
 --------------------------
 Total WFN1 energy  =          -1.1323476019
 1-Electron energy  =          -2.5057785334
 2-Electron energy  =           0.6567229579
 Correlation energy =          -0.0033941081
 DFT XC energy      =           0.0000000000
 Entropy energy     =           0.0000000000
 Nuclear energy     =           0.7201020817

 conventional Hartree-Fock:
 --------------------------
 Total SCF energy  =          -1.1313243394
 2-Electron energy =           0.6577462204

                WFN1 Final Natural orbital energies and occupations
                ---------------------------------------------------

              Alpha       Beta            Alpha       Beta  
            --------    --------        --------    --------
       1      0.0000      0.0000          0.9988      0.9988
       2      0.0000      0.0000          0.0008      0.0008
       3      0.0000      0.0000          0.0000      0.0000
       4      0.0000      0.0000          0.0002      0.0002
       5      0.0000      0.0000          0.0000      0.0000
       6      0.0000      0.0000          0.0001      0.0001
       7      0.0000      0.0000          0.0001      0.0001
       8      0.0000      0.0000          0.0000      0.0000
       9      0.0000      0.0000          0.0000      0.0000
      10      0.0000      0.0000          0.0000      0.0000

             WFN1 Final Correlation function energies and occupations
             --------------------------------------------------------

              Alpha       Beta            Alpha       Beta  
            --------    --------        --------    --------
       1      0.0000      0.0000          1.0000      1.0000
       2      0.0000      0.0000          0.0000      0.0000
       3      0.0000      0.0000          0.0000      0.0000
       4      0.0000      0.0000          0.0000      0.0000
       5      0.0000      0.0000          0.0000      0.0000
       6      0.0000      0.0000          0.0000      0.0000
       7      0.0000      0.0000          0.0000      0.0000
       8      0.0000      0.0000          0.0000      0.0000
       9      0.0000      0.0000          0.0000      0.0000
      10      0.0000      0.0000          0.0000      0.0000

                WFN1 Final alpha-alpha 2-matrix occupation numbers
                --------------------------------------------------


 global array: g_momo1[1:10,1:10],  handle: -990 

            1           2           3           4           5           6  
       ----------- ----------- ----------- ----------- ----------- -----------
   1       0.00000    -0.00000     0.00000     0.00000     0.00000     0.00000
   2      -0.00000     0.00000     0.00000     0.00000    -0.00000     0.00000
   3       0.00000     0.00000     0.00000    -0.00000     0.00000     0.00000
   4       0.00000     0.00000     0.00000     0.00000     0.00000     0.00000
   5       0.00000     0.00000     0.00000     0.00000     0.00000     0.00000
   6       0.00000    -0.00000     0.00000     0.00000     0.00000     0.00000
   7       0.00000     0.00000     0.00000     0.00000     0.00000     0.00000
   8       0.00000     0.00000     0.00000     0.00000     0.00000     0.00000
   9       0.00000     0.00000     0.00000    -0.00000     0.00000     0.00000
  10       0.00000     0.00000     0.00000    -0.00000     0.00000     0.00000

            7           8           9          10  
       ----------- ----------- ----------- -----------
   1       0.00000     0.00000    -0.00000     0.00000
   2       0.00000     0.00000    -0.00000     0.00000
   3       0.00000     0.00000    -0.00000     0.00000
   4       0.00000     0.00000    -0.00000     0.00000
   5       0.00000     0.00000     0.00000     0.00000
   6       0.00000     0.00000    -0.00000     0.00000
   7       0.00000     0.00000    -0.00000     0.00000
   8      -0.00000     0.00000    -0.00000     0.00000
   9       0.00000     0.00000    -0.00000     0.00000
  10       0.00000     0.00000    -0.00000     0.00000

                 WFN1 Final beta-beta 2-matrix occupation numbers
                 ------------------------------------------------


 global array: g_momo2[1:10,1:10],  handle: -989 

            1           2           3           4           5           6  
       ----------- ----------- ----------- ----------- ----------- -----------
   1       0.00000    -0.00000     0.00000     0.00000     0.00000     0.00000
   2      -0.00000     0.00000     0.00000     0.00000    -0.00000     0.00000
   3       0.00000     0.00000     0.00000    -0.00000     0.00000     0.00000
   4       0.00000     0.00000     0.00000     0.00000     0.00000     0.00000
   5       0.00000     0.00000     0.00000     0.00000     0.00000     0.00000
   6       0.00000    -0.00000     0.00000     0.00000     0.00000     0.00000
   7       0.00000     0.00000     0.00000     0.00000     0.00000     0.00000
   8       0.00000     0.00000     0.00000     0.00000     0.00000     0.00000
   9       0.00000     0.00000     0.00000    -0.00000     0.00000     0.00000
  10       0.00000     0.00000     0.00000    -0.00000     0.00000     0.00000

            7           8           9          10  
       ----------- ----------- ----------- -----------
   1       0.00000     0.00000    -0.00000     0.00000
   2       0.00000     0.00000    -0.00000     0.00000
   3       0.00000     0.00000    -0.00000     0.00000
   4       0.00000     0.00000    -0.00000     0.00000
   5       0.00000     0.00000     0.00000     0.00000
   6       0.00000     0.00000    -0.00000     0.00000
   7       0.00000     0.00000    -0.00000     0.00000
   8      -0.00000     0.00000    -0.00000     0.00000
   9       0.00000     0.00000    -0.00000     0.00000
  10       0.00000     0.00000    -0.00000     0.00000

                  WFN1 Final alpha Correlation Function Analysis
                  ----------------------------------------------


 global array: Ca[1:10,1:10],  handle: -977 

                     1                       2                       3                       4                       5                       6  
       ----------------------- ----------------------- ----------------------- ----------------------- ----------------------- -----------------------
   1       0.57046,    0.82058    -0.01599,   -0.02446    -0.00229,   -0.00449    -0.01040,    0.00830    -0.00184,   -0.00486     0.00233,    0.00489
   2      -0.00761,   -0.02763    -0.23525,   -0.96957     0.01129,    0.05191     0.02054,   -0.00315     0.00213,   -0.00251    -0.00888,    0.00692
   3       0.00532,    0.00398     0.03427,    0.03963     0.61048,    0.78575    -0.05782,   -0.05701    -0.00333,    0.01333     0.01043,   -0.00521
   4      -0.00081,    0.01395     0.00592,    0.02074     0.08029,    0.01025     0.99461,    0.01710    -0.05155,   -0.00534     0.00585,   -0.00592
   5      -0.00000,    0.00000     0.00088,    0.00493     0.00460,   -0.00191    -0.02566,    0.02248    -0.62204,    0.34049    -0.61764,    0.33768
   6      -0.00585,   -0.00448     0.01105,   -0.00422     0.01126,   -0.01065    -0.02910,   -0.02801    -0.50323,   -0.49007     0.50798,    0.49514
   7      -0.00051,   -0.00872    -0.00297,    0.00102     0.00252,   -0.00435     0.00466,    0.00411    -0.01797,    0.01570     0.02252,   -0.00505
   8       0.00000,   -0.00000     0.00319,   -0.00070    -0.00713,    0.00274    -0.00851,    0.01605     0.00421,    0.00340    -0.00547,   -0.01174
   9      -0.00343,    0.00189     0.00827,    0.00469    -0.00392,    0.00931    -0.00304,    0.00263     0.01066,    0.00410     0.01196,    0.00386
  10       0.00359,   -0.00238     0.00624,   -0.01473     0.00538,    0.00542     0.00792,    0.00370    -0.00381,   -0.00795     0.00797,    0.00134

                     7                       8                       9                      10  
       ----------------------- ----------------------- ----------------------- -----------------------
   1      -0.00831,    0.00357     0.00233,    0.00108     0.00159,   -0.00255     0.00270,    0.00281
   2      -0.00199,    0.00517    -0.00160,    0.00389    -0.00304,   -0.00776     0.00431,   -0.01569
   3      -0.00721,    0.00440    -0.00858,    0.00071     0.00270,   -0.00183     0.00584,   -0.00327
   4       0.00061,    0.00126    -0.01399,    0.00537    -0.01315,   -0.00162     0.00405,   -0.00852
   5       0.00182,    0.00649     0.00750,   -0.00549    -0.01581,    0.00163    -0.00539,    0.00143
   6       0.00145,    0.03292    -0.00091,   -0.00540    -0.00068,    0.00959     0.00821,   -0.00578
   7      -0.87483,   -0.24174     0.40102,    0.11828     0.00403,    0.00289     0.00293,   -0.01214
   8      -0.09836,    0.28746    -0.22437,    0.61294    -0.24090,    0.65031    -0.00357,   -0.01056
   9       0.22513,    0.17780     0.49026,    0.39780    -0.55670,   -0.45652    -0.00896,    0.01358
  10      -0.01290,   -0.01244    -0.01012,   -0.00435    -0.00134,    0.00970    -0.77890,    0.62627

                   WFN1 Final beta Correlation Function Analysis
                   ---------------------------------------------


 global array: Cb[1:10,1:10],  handle: -976 

                     1                       2                       3                       4                       5                       6  
       ----------------------- ----------------------- ----------------------- ----------------------- ----------------------- -----------------------
   1       0.57046,    0.82058    -0.01599,   -0.02446    -0.00229,   -0.00449    -0.01040,    0.00830    -0.00184,   -0.00486     0.00233,    0.00489
   2      -0.00761,   -0.02763    -0.23525,   -0.96957     0.01129,    0.05191     0.02054,   -0.00315     0.00213,   -0.00251    -0.00888,    0.00692
   3       0.00532,    0.00398     0.03427,    0.03963     0.61048,    0.78575    -0.05782,   -0.05701    -0.00333,    0.01333     0.01043,   -0.00521
   4      -0.00081,    0.01395     0.00592,    0.02074     0.08029,    0.01025     0.99461,    0.01710    -0.05155,   -0.00534     0.00585,   -0.00592
   5      -0.00000,    0.00000     0.00088,    0.00493     0.00460,   -0.00191    -0.02566,    0.02248    -0.62204,    0.34049    -0.61764,    0.33768
   6      -0.00585,   -0.00448     0.01105,   -0.00422     0.01126,   -0.01065    -0.02910,   -0.02801    -0.50323,   -0.49007     0.50798,    0.49514
   7      -0.00051,   -0.00872    -0.00297,    0.00102     0.00252,   -0.00435     0.00466,    0.00411    -0.01797,    0.01570     0.02252,   -0.00505
   8       0.00000,   -0.00000     0.00319,   -0.00070    -0.00713,    0.00274    -0.00851,    0.01605     0.00421,    0.00340    -0.00547,   -0.01174
   9      -0.00343,    0.00189     0.00827,    0.00469    -0.00392,    0.00931    -0.00304,    0.00263     0.01066,    0.00410     0.01196,    0.00386
  10       0.00359,   -0.00238     0.00624,   -0.01473     0.00538,    0.00542     0.00792,    0.00370    -0.00381,   -0.00795     0.00797,    0.00134

                     7                       8                       9                      10  
       ----------------------- ----------------------- ----------------------- -----------------------
   1      -0.00831,    0.00357     0.00233,    0.00108     0.00159,   -0.00255     0.00270,    0.00281
   2      -0.00199,    0.00517    -0.00160,    0.00389    -0.00304,   -0.00776     0.00431,   -0.01569
   3      -0.00721,    0.00440    -0.00858,    0.00071     0.00270,   -0.00183     0.00584,   -0.00327
   4       0.00061,    0.00126    -0.01399,    0.00537    -0.01315,   -0.00162     0.00405,   -0.00852
   5       0.00182,    0.00649     0.00750,   -0.00549    -0.01581,    0.00163    -0.00539,    0.00143
   6       0.00145,    0.03292    -0.00091,   -0.00540    -0.00068,    0.00959     0.00821,   -0.00578
   7      -0.87483,   -0.24174     0.40102,    0.11828     0.00403,    0.00289     0.00293,   -0.01214
   8      -0.09836,    0.28746    -0.22437,    0.61294    -0.24090,    0.65031    -0.00357,   -0.01056
   9       0.22513,    0.17780     0.49026,    0.39780    -0.55670,   -0.45652    -0.00896,    0.01358
  10      -0.01290,   -0.01244    -0.01012,   -0.00435    -0.00134,    0.00970    -0.77890,    0.62627

                     WFN1 Final Alpha Natural Orbital Analysis
                     -----------------------------------------

 Vector    1  Occ=9.987749D-01  E= 0.000000D+00
              MO Center=  6.8D-04, -1.3D-03, -2.7D-03, r^2= 7.2D-01
   Bfn.  Coefficient  Atom+Function         Bfn.  Coefficient  Atom+Function  
  ----- ------------  ---------------      ----- ------------  ---------------
     1     -0.321620  1 H  s                  6     -0.315399  2 H  s          
     2     -0.276007  1 H  s                  7     -0.273570  2 H  s          

 Vector    2  Occ=8.213730D-04  E= 0.000000D+00
              MO Center= -1.3D-03,  2.2D-03, -6.0D-03, r^2= 2.0D+00
   Bfn.  Coefficient  Atom+Function         Bfn.  Coefficient  Atom+Function  
  ----- ------------  ---------------      ----- ------------  ---------------
     2     -1.684474  1 H  s                  7      1.671599  2 H  s          
     6      0.161850  2 H  s                  1     -0.143519  1 H  s          

 Vector    3  Occ=4.415093D-05  E= 0.000000D+00
              MO Center= -1.2D-04, -9.3D-05,  2.4D-03, r^2= 1.6D+00
   Bfn.  Coefficient  Atom+Function         Bfn.  Coefficient  Atom+Function  
  ----- ------------  ---------------      ----- ------------  ---------------
     1     -0.753860  1 H  s                  6     -0.728285  2 H  s          
     7      0.680358  2 H  s                  2      0.669756  1 H  s          
     5     -0.043053  1 H  pz                10      0.037211  2 H  pz         

 Vector    4  Occ=1.952690D-04  E= 0.000000D+00
              MO Center= -1.7D-03, -2.8D-03, -1.3D-05, r^2= 1.2D+00
   Bfn.  Coefficient  Atom+Function         Bfn.  Coefficient  Atom+Function  
  ----- ------------  ---------------      ----- ------------  ---------------
     2      1.458644  1 H  s                  7     -1.463773  2 H  s          
     1     -0.878751  1 H  s                  6      0.883000  2 H  s          
     5      0.284306  1 H  pz                10      0.270265  2 H  pz         

 Vector    5  Occ=3.748042D-18  E= 0.000000D+00
              MO Center=  2.4D-05,  6.4D-06,  1.1D-03, r^2= 4.2D-01
   Bfn.  Coefficient  Atom+Function         Bfn.  Coefficient  Atom+Function  
  ----- ------------  ---------------      ----- ------------  ---------------
     3      0.603885  1 H  px                 8      0.606554  2 H  px         
     4      0.071633  1 H  py                 9      0.069605  2 H  py         

 Vector    6  Occ=5.419456D-05  E= 0.000000D+00
              MO Center= -1.7D-04,  1.5D-03, -2.9D-03, r^2= 4.2D-01
   Bfn.  Coefficient  Atom+Function         Bfn.  Coefficient  Atom+Function  
  ----- ------------  ---------------      ----- ------------  ---------------
     4     -0.608930  1 H  py                 9     -0.601481  2 H  py         
     8      0.075002  2 H  px                 3      0.066488  1 H  px         
     2      0.032505  1 H  s                  7     -0.030559  2 H  s          

 Vector    7  Occ=7.635334D-05  E= 0.000000D+00
              MO Center= -3.2D-04, -1.3D-04,  8.5D-03, r^2= 5.6D-01
   Bfn.  Coefficient  Atom+Function         Bfn.  Coefficient  Atom+Function  
  ----- ------------  ---------------      ----- ------------  ---------------
    10     -0.656459  2 H  pz                 5      0.642149  1 H  pz         
     6     -0.397384  2 H  s                  1     -0.388828  1 H  s          
     7      0.215179  2 H  s                  2      0.171679  1 H  s          

 Vector    8  Occ=1.674943D-16  E= 0.000000D+00
              MO Center= -2.0D-05,  8.1D-05,  2.2D-03, r^2= 5.2D-01
   Bfn.  Coefficient  Atom+Function         Bfn.  Coefficient  Atom+Function  
  ----- ------------  ---------------      ----- ------------  ---------------
     4     -0.844776  1 H  py                 9      0.848639  2 H  py         
     3      0.219305  1 H  px                 8     -0.217912  2 H  px         

 Vector    9  Occ=1.529429D-05  E= 0.000000D+00
              MO Center=  2.5D-03,  6.4D-04, -2.3D-04, r^2= 5.3D-01
   Bfn.  Coefficient  Atom+Function         Bfn.  Coefficient  Atom+Function  
  ----- ------------  ---------------      ----- ------------  ---------------
     3     -0.847779  1 H  px                 8      0.845448  2 H  px         
     9      0.221985  2 H  py                 4     -0.215084  1 H  py         

 Vector   10  Occ=1.851104D-05  E= 0.000000D+00
              MO Center=  4.4D-04, -1.2D-04, -2.4D-03, r^2= 5.3D-01
   Bfn.  Coefficient  Atom+Function         Bfn.  Coefficient  Atom+Function  
  ----- ------------  ---------------      ----- ------------  ---------------
     5     -1.597536  1 H  pz                10     -1.594168  2 H  pz         
     6      1.487095  2 H  s                  1     -1.479673  1 H  s          
     2     -0.166898  1 H  s                  7      0.161901  2 H  s          


                     WFN1 Final Beta Natural Orbital Analysis
                     ----------------------------------------

 Vector    1  Occ=9.987749D-01  E= 0.000000D+00
              MO Center=  6.8D-04, -1.3D-03, -2.7D-03, r^2= 7.2D-01
   Bfn.  Coefficient  Atom+Function         Bfn.  Coefficient  Atom+Function  
  ----- ------------  ---------------      ----- ------------  ---------------
     1     -0.321620  1 H  s                  6     -0.315399  2 H  s          
     2     -0.276007  1 H  s                  7     -0.273570  2 H  s          

 Vector    2  Occ=8.213730D-04  E= 0.000000D+00
              MO Center= -1.3D-03,  2.2D-03, -6.0D-03, r^2= 2.0D+00
   Bfn.  Coefficient  Atom+Function         Bfn.  Coefficient  Atom+Function  
  ----- ------------  ---------------      ----- ------------  ---------------
     2     -1.684474  1 H  s                  7      1.671599  2 H  s          
     6      0.161850  2 H  s                  1     -0.143519  1 H  s          

 Vector    3  Occ=4.415093D-05  E= 0.000000D+00
              MO Center= -1.2D-04, -9.3D-05,  2.4D-03, r^2= 1.6D+00
   Bfn.  Coefficient  Atom+Function         Bfn.  Coefficient  Atom+Function  
  ----- ------------  ---------------      ----- ------------  ---------------
     1     -0.753860  1 H  s                  6     -0.728285  2 H  s          
     7      0.680358  2 H  s                  2      0.669756  1 H  s          
     5     -0.043053  1 H  pz                10      0.037211  2 H  pz         

 Vector    4  Occ=1.952690D-04  E= 0.000000D+00
              MO Center= -1.7D-03, -2.8D-03, -1.3D-05, r^2= 1.2D+00
   Bfn.  Coefficient  Atom+Function         Bfn.  Coefficient  Atom+Function  
  ----- ------------  ---------------      ----- ------------  ---------------
     2      1.458644  1 H  s                  7     -1.463773  2 H  s          
     1     -0.878751  1 H  s                  6      0.883000  2 H  s          
     5      0.284306  1 H  pz                10      0.270265  2 H  pz         

 Vector    5  Occ=3.748042D-18  E= 0.000000D+00
              MO Center=  2.4D-05,  6.4D-06,  1.1D-03, r^2= 4.2D-01
   Bfn.  Coefficient  Atom+Function         Bfn.  Coefficient  Atom+Function  
  ----- ------------  ---------------      ----- ------------  ---------------
     3      0.603885  1 H  px                 8      0.606554  2 H  px         
     4      0.071633  1 H  py                 9      0.069605  2 H  py         

 Vector    6  Occ=5.419456D-05  E= 0.000000D+00
              MO Center= -1.7D-04,  1.5D-03, -2.9D-03, r^2= 4.2D-01
   Bfn.  Coefficient  Atom+Function         Bfn.  Coefficient  Atom+Function  
  ----- ------------  ---------------      ----- ------------  ---------------
     4     -0.608930  1 H  py                 9     -0.601481  2 H  py         
     8      0.075002  2 H  px                 3      0.066488  1 H  px         
     2      0.032505  1 H  s                  7     -0.030559  2 H  s          

 Vector    7  Occ=7.635334D-05  E= 0.000000D+00
              MO Center= -3.2D-04, -1.3D-04,  8.5D-03, r^2= 5.6D-01
   Bfn.  Coefficient  Atom+Function         Bfn.  Coefficient  Atom+Function  
  ----- ------------  ---------------      ----- ------------  ---------------
    10     -0.656459  2 H  pz                 5      0.642149  1 H  pz         
     6     -0.397384  2 H  s                  1     -0.388828  1 H  s          
     7      0.215179  2 H  s                  2      0.171679  1 H  s          

 Vector    8  Occ=1.674943D-16  E= 0.000000D+00
              MO Center= -2.0D-05,  8.1D-05,  2.2D-03, r^2= 5.2D-01
   Bfn.  Coefficient  Atom+Function         Bfn.  Coefficient  Atom+Function  
  ----- ------------  ---------------      ----- ------------  ---------------
     4     -0.844776  1 H  py                 9      0.848639  2 H  py         
     3      0.219305  1 H  px                 8     -0.217912  2 H  px         

 Vector    9  Occ=1.529429D-05  E= 0.000000D+00
              MO Center=  2.5D-03,  6.4D-04, -2.3D-04, r^2= 5.3D-01
   Bfn.  Coefficient  Atom+Function         Bfn.  Coefficient  Atom+Function  
  ----- ------------  ---------------      ----- ------------  ---------------
     3     -0.847779  1 H  px                 8      0.845448  2 H  px         
     9      0.221985  2 H  py                 4     -0.215084  1 H  py         

 Vector   10  Occ=1.851104D-05  E= 0.000000D+00
              MO Center=  4.4D-04, -1.2D-04, -2.4D-03, r^2= 5.3D-01
   Bfn.  Coefficient  Atom+Function         Bfn.  Coefficient  Atom+Function  
  ----- ------------  ---------------      ----- ------------  ---------------
     5     -1.597536  1 H  pz                10     -1.594168  2 H  pz         
     6      1.487095  2 H  s                  1     -1.479673  1 H  s          
     2     -0.166898  1 H  s                  7      0.161901  2 H  s          


 Task  times  cpu:      198.1s     wall:      233.5s
 Summary of allocated global arrays
-----------------------------------
  No active global arrays



                         GA Statistics for process    0
                         ------------------------------

       create   destroy   get      put      acc     scatter   gather  read&inc
calls:   44       44     5.61e+07 2.56e+04 3.21e+04    0        0       11     
number of processes/call 1.00e+00 1.00e+00 1.00e+00 0.00e+00 0.00e+00
bytes total:             4.49e+10 2.57e+07 3.20e+07 0.00e+00 0.00e+00 8.80e+01
bytes remote:            0.00e+00 0.00e+00 0.00e+00 0.00e+00 0.00e+00 0.00e+00
Max memory consumed for GA by this process: 268000 bytes
MA_summarize_allocated_blocks: starting scan ...
MA_summarize_allocated_blocks: scan completed: 0 heap blocks, 0 stack blocks
MA usage statistics:

	allocation statistics:
					      heap	     stack
					      ----	     -----
	current number of blocks	         0	         0
	maximum number of blocks	        19	        17
	current total bytes		         0	         0
	maximum total bytes		   3205432	  22508664
	maximum total K-bytes		      3206	     22509
	maximum total M-bytes		         4	        23


                                NWChem Input Module
                                -------------------





                                     CITATION
                                     --------
                Please cite the following reference when publishing
                           results obtained with NWChem:

                 M. Valiev, E.J. Bylaska, N. Govind, K. Kowalski,
              T.P. Straatsma, H.J.J. van Dam, D. Wang, J. Nieplocha,
                        E. Apra, T.L. Windus, W.A. de Jong
                 "NWChem: a comprehensive and scalable open-source
                  solution for large scale molecular simulations"
                      Comput. Phys. Commun. 181, 1477 (2010)
                           doi:10.1016/j.cpc.2010.04.018

                                      AUTHORS
                                      -------
          E. Apra, E. J. Bylaska, W. A. de Jong, N. Govind, K. Kowalski,
       T. P. Straatsma, M. Valiev, H. J. J. van Dam, D. Wang, T. L. Windus,
        J. Hammond, J. Autschbach, K. Bhaskaran-Nair, J. Brabec, K. Lopata,
    S. A. Fischer, S. Krishnamoorthy, M. Jacquelin, W. Ma, M. Klemm, O. Villa,
      Y. Chen, V. Anisimov, F. Aquino, S. Hirata, M. T. Hackler, V. Konjkov,
      T. Risthaus, M. Malagoli, A. Marenich, A. Otero-de-la-Roza, J. Mullin,
        P. Nichols, R. Peverati, J. Pittner, Y. Zhao, P.-D. Fan, A. Fonari,
       M. Williamson, R. J. Harrison, J. R. Rehr, M. Dupuis, D. Silverstein,
    D. M. A. Smith, J. Nieplocha, V. Tipparaju, M. Krishnan, B. E. Van Kuiken,
        A. Vazquez-Mayagoitia, L. Jensen, M. Swart, Q. Wu, T. Van Voorhis,
     A. A. Auer, M. Nooijen, L. D. Crosby, E. Brown, G. Cisneros, G. I. Fann,
   H. Fruchtl, J. Garza, K. Hirao, R. A. Kendall, J. A. Nichols, K. Tsemekhman,
    K. Wolinski, J. Anchell, D. E. Bernholdt, P. Borowski, T. Clark, D. Clerc,
   H. Dachsel, M. J. O. Deegan, K. Dyall, D. Elwood, E. Glendening, M. Gutowski,
   A. C. Hess, J. Jaffe, B. G. Johnson, J. Ju, R. Kobayashi, R. Kutteh, Z. Lin,
   R. Littlefield, X. Long, B. Meng, T. Nakajima, S. Niu, L. Pollack, M. Rosing,
   K. Glaesemann, G. Sandrone, M. Stave, H. Taylor, G. Thomas, J. H. van Lenthe,
                               A. T. Wong, Z. Zhang.

 Total times  cpu:      198.1s     wall:      233.6s
