 argument  1 = input-wf.nw



============================== echo of input deck ==============================
echo
start wfn1_dat
geometry units au noautoz
  H 0 0 -2.49434600000000000000
  H 0 0  2.49434600000000000000
  symmetry cs
end
basis
  H library 6-31g**
end
set wfn1:input_vectors "atomic"
set wfn1:solver "monte-carlo"
set wfn1:print_error F
set wfn1:t_initial 0.1
#set wfn1:corr_expr "wfn1_mx"
set wfn1:corr_expr "wfn1c"
set wfn1:t_bath 0.0
set wfn1:maxit  20000
task wfn1 energy
================================================================================


                                         
                                         


              Northwest Computational Chemistry Package (NWChem) 6.8
              ------------------------------------------------------


                    Environmental Molecular Sciences Laboratory
                       Pacific Northwest National Laboratory
                                Richland, WA 99352

                              Copyright (c) 1994-2015
                       Pacific Northwest National Laboratory
                            Battelle Memorial Institute

             NWChem is an open-source computational chemistry package
                        distributed under the terms of the
                      Educational Community License (ECL) 2.0
             A copy of the license is included with this distribution
                              in the LICENSE.TXT file

                                  ACKNOWLEDGMENT
                                  --------------

            This software and its documentation were developed at the
            EMSL at Pacific Northwest National Laboratory, a multiprogram
            national laboratory, operated for the U.S. Department of Energy
            by Battelle under Contract Number DE-AC05-76RL01830. Support
            for this work was provided by the Department of Energy Office
            of Biological and Environmental Research, Office of Basic
            Energy Sciences, and the Office of Advanced Scientific Computing.


           Job information
           ---------------

    hostname        = erato
    program         = ../../../bin/LINUX64/nwchem
    date            = Tue Mar  2 06:49:07 2021

    compiled        = Sun_Feb_28_18:02:42_2021
    source          = /home/hvandam/nwchem-1-wfn1
    nwchem branch   = Development
    nwchem revision = nwchem_on_git-124-gad72d19fff205e319ffbbf2bca37a04ded6ad57b
    ga revision     = nwchem_on_git-124-gad72d19
    use scalapack   = F
    input           = input-wf.nw
    prefix          = wfn1_dat.
    data base       = ./wfn1_dat.db
    status          = startup
    nproc           =        1
    time left       =     -1s



           Memory information
           ------------------

    heap     =   13107198 doubles =    100.0 Mbytes
    stack    =   13107195 doubles =    100.0 Mbytes
    global   =   26214400 doubles =    200.0 Mbytes (distinct from heap & stack)
    total    =   52428793 doubles =    400.0 Mbytes
    verify   = yes
    hardfail = no 


           Directory information
           ---------------------

  0 permanent = .
  0 scratch   = .




                                NWChem Input Module
                                -------------------


 Turning off AUTOSYM since
 SYMMETRY directive was detected!



                             Geometry "geometry" -> ""
                             -------------------------

 Output coordinates in a.u. (scale by  1.000000000 to convert to a.u.)

  No.       Tag          Charge          X              Y              Z
 ---- ---------------- ---------- -------------- -------------- --------------
    1 H                    1.0000     0.00000000     0.00000000    -2.49434600
    2 H                    1.0000     0.00000000     0.00000000     2.49434600

      Atomic Mass 
      ----------- 

      H                  1.007825


 Effective nuclear repulsion energy (a.u.)       0.2004533453

            Nuclear Dipole moment (a.u.) 
            ----------------------------
        X                 Y               Z
 ---------------- ---------------- ----------------
     0.0000000000     0.0000000000     0.0000000000

      Symmetry information
      --------------------

 Group name             Cs        
 Group number              2
 Group order               2
 No. of unique centers     1

      Symmetry unique atoms

     1


            XYZ format geometry
            -------------------
     2
 geometry
 H                     0.00000000     0.00000000    -1.31995115
 H                     0.00000000     0.00000000     1.31995115

                      Basis "ao basis" -> "" (cartesian)
                      -----
  H (Hydrogen)
  ------------
            Exponent  Coefficients 
       -------------- ---------------------------------------------------------
  1 S  1.87311370E+01  0.033495
  1 S  2.82539370E+00  0.234727
  1 S  6.40121700E-01  0.813757

  2 S  1.61277800E-01  1.000000

  3 P  1.10000000E+00  1.000000



 Summary of "ao basis" -> "" (cartesian)
 ------------------------------------------------------------------------------
       Tag                 Description            Shells   Functions and Types
 ---------------- ------------------------------  ------  ---------------------
 H                          6-31g**                  3        5   2s1p



                                NWChem WFN1 Module
                                ------------------



          No. of electrons :     2
           Alpha electrons :     1
            Beta electrons :     1
          Charge           :     0
          Spin multiplicity:     1

 HvD: wfn1_inpdft
 HvD: nquad_task =                     1
 HvD: iangquad   =                     0
 HvD: gridtype   = user      
 HvD: leb        =  T
 HvD: radgrid    = murakn    
 HvD: trunc_neigh=  T
 HvD: lssw       =  T
 HvD: whichssw   = erf1    
 HvD: mxnrad     =                     0
 HvD: mxnang     =                     0
 HVD: wfn1: movecs_in  = atomic                                                                                                                                                                                                                                                          
 HVD: wfn1: movecs_out = ./wfn1_dat.movecs                                                                                                                                                                                                                                               

      Superposition of Atomic Density Guess
      -------------------------------------

 Sum of atomic energies:          -0.99646508

      Non-variational initial energy
      ------------------------------

 Total energy =      -0.683584
 1-e energy   =      -1.397362
 2-e energy   =       0.513324
 HOMO         =      -0.222671
 LUMO         =      -0.157546

 iteration              energy           error
 ---------              ------           -----
         0         -0.84597058        0.200000
         1         -0.85679075        0.200000
         2         -0.85922877        0.200000
         3         -0.86059251        0.200000
         4         -0.86304938        0.200000
         5         -0.86347269        0.200000
         6         -0.86435724        0.200000
         7         -0.86468221        0.200000
         8         -0.86468680        0.200000
         9         -0.86659077        0.200000
        10         -0.86763126        0.200000
        11         -0.86942310        0.200000
        12         -0.86943264        0.200000
        13         -0.86956678        0.185175
        14         -0.86982616        0.185175
        15         -0.87026537        0.185175
        16         -0.87036969        0.185175
        17         -0.87037121        0.185175
        18         -0.87046448        0.185175
        19         -0.87072204        0.171449
        20         -0.87073454        0.171449
        21         -0.87094394        0.171449
        22         -0.87096394        0.171449
        23         -0.87105618        0.171449
        24         -0.87167825        0.171449
        25         -0.87171785        0.171449
        26         -0.87177522        0.171449
        27         -0.87181902        0.158740
        28         -0.87204751        0.158740
        29         -0.87297488        0.158740
        30         -0.87343211        0.158740
        31         -0.87362658        0.146973
        32         -0.87428219        0.136079
        33         -0.87434396        0.136079
        34         -0.87440223        0.136079
        35         -0.87445087        0.136079
        36         -0.87447855        0.136079
        37         -0.87461517        0.136079
        38         -0.87461778        0.092587
        39         -0.87467829        0.092587
        40         -0.87468753        0.079370
        41         -0.87470466        0.079370
        42         -0.87478876        0.079370
        43         -0.87479064        0.079370
        44         -0.87493108        0.079370
        45         -0.87501138        0.079370
        46         -0.87506623        0.073487
        47         -0.87508412        0.073487
        48         -0.87516488        0.073487
        49         -0.87521097        0.073487
        50         -0.87538603        0.073487
        51         -0.87538866        0.073487
        52         -0.87553124        0.073487
        53         -0.87568963        0.068040
        54         -0.87572992        0.068040
        55         -0.87575311        0.068040
        56         -0.87578570        0.068040
        57         -0.87579086        0.068040
        58         -0.87579296        0.058326
        59         -0.87581423        0.058326
        60         -0.87581788        0.050000
        61         -0.87582694        0.050000
        62         -0.87583572        0.050000
        63         -0.87587379        0.050000
        64         -0.87597309        0.050000
        65         -0.87597993        0.050000
        66         -0.87598476        0.050000
        67         -0.87599354        0.050000
        68         -0.87600371        0.050000
        69         -0.87604945        0.050000
        70         -0.87615296        0.050000
        71         -0.87620373        0.050000
        72         -0.87621076        0.050000
        73         -0.87623946        0.050000
        74         -0.87625726        0.050000
        75         -0.87630278        0.050000
        76         -0.87634018        0.042862
        77         -0.87635770        0.042862
        78         -0.87635805        0.042862
        79         -0.87638149        0.042862
        80         -0.87640262        0.042862
        81         -0.87641423        0.042862
        82         -0.87645521        0.042862
        83         -0.87645811        0.042862
        84         -0.87651763        0.042862
        85         -0.87652516        0.036743
        86         -0.87653126        0.036743
        87         -0.87655132        0.036743
        88         -0.87655174        0.036743
        89         -0.87655812        0.036743
        90         -0.87658059        0.036743
        91         -0.87658159        0.036743
        92         -0.87659661        0.036743
        93         -0.87660308        0.036743
        94         -0.87663174        0.036743
        95         -0.87667637        0.036743
        96         -0.87668698        0.036743
        97         -0.87669606        0.036743
        98         -0.87676160        0.036743
        99         -0.87676592        0.036743
       100         -0.87677881        0.036743
       101         -0.87679349        0.036743
       102         -0.87682344        0.036743
       103         -0.87682858        0.036743
       104         -0.87684151        0.036743
       105         -0.87688471        0.036743
       106         -0.87689944        0.036743
       107         -0.87692565        0.031498
       108         -0.87697474        0.031498
       109         -0.87697560        0.031498
       110         -0.87697867        0.031498
       111         -0.87702921        0.031498
       112         -0.87703612        0.031498
       113         -0.87708125        0.031498
       114         -0.87709531        0.031498
       115         -0.87709783        0.031498
       116         -0.87711207        0.031498
       117         -0.87712946        0.031498
       118         -0.87714570        0.031498
       119         -0.87714805        0.031498
       120         -0.87716626        0.031498
       121         -0.87717755        0.031498
       122         -0.87719398        0.031498
       123         -0.87719510        0.031498
       124         -0.87720248        0.031498
       125         -0.87723137        0.031498
       126         -0.87724536        0.031498
       127         -0.87728086        0.031498
       128         -0.87730590        0.031498
       129         -0.87733084        0.031498
       130         -0.87733370        0.029163
       131         -0.87734565        0.029163
       132         -0.87735140        0.029163
       133         -0.87735435        0.027001
       134         -0.87736137        0.027001
       135         -0.87738035        0.027001
       136         -0.87739590        0.027001
       137         -0.87742173        0.027001
       138         -0.87742594        0.027001
       139         -0.87746709        0.027001
       140         -0.87748512        0.027001
       141         -0.87748755        0.027001
       142         -0.87749827        0.027001
       143         -0.87753009        0.025000
       144         -0.87753234        0.025000
       145         -0.87755866        0.025000
       146         -0.87756094        0.025000
       147         -0.87757508        0.025000
       148         -0.87757646        0.025000
       149         -0.87758283        0.025000
       150         -0.87758746        0.025000
       151         -0.87759097        0.025000
       152         -0.87761209        0.025000
       153         -0.87763764        0.025000
       154         -0.87764041        0.025000
       155         -0.87764802        0.025000
       156         -0.87767833        0.025000
       157         -0.87769856        0.025000
       158         -0.87769878        0.025000
       159         -0.87770352        0.025000
       160         -0.87770908        0.025000
       161         -0.87771897        0.023147
       162         -0.87772084        0.023147
       163         -0.87773611        0.023147
       164         -0.87774002        0.023147
       165         -0.87775671        0.023147
       166         -0.87778172        0.023147
       167         -0.87778646        0.023147
       168         -0.87779088        0.023147
       169         -0.87779334        0.023147
       170         -0.87781339        0.023147
       171         -0.87781752        0.023147
       172         -0.87781881        0.023147
       173         -0.87782662        0.023147
       174         -0.87783072        0.023147
       175         -0.87785044        0.023147
       176         -0.87785515        0.023147
       177         -0.87788531        0.021431
       178         -0.87789201        0.021431
       179         -0.87789934        0.021431
       180         -0.87790224        0.021431
       181         -0.87790979        0.021431
       182         -0.87792073        0.021431
       183         -0.87792139        0.021431
       184         -0.87793094        0.021431
       185         -0.87795425        0.021431
       186         -0.87796373        0.021431
       187         -0.87797926        0.021431
       188         -0.87798937        0.021431
       189         -0.87798988        0.021431
       190         -0.87800996        0.021431
       191         -0.87802122        0.021431
       192         -0.87802152        0.021431
       193         -0.87802224        0.021431
       194         -0.87802824        0.021431
       195         -0.87803521        0.021431
       196         -0.87805103        0.021431
       197         -0.87805371        0.021431
       198         -0.87807549        0.021431
       199         -0.87808493        0.021431
       200         -0.87809982        0.021431
       201         -0.87810823        0.021431
       202         -0.87811129        0.019843
       203         -0.87811899        0.019843
       204         -0.87813316        0.019843
       205         -0.87813420        0.019843
       206         -0.87814489        0.019843
       207         -0.87815694        0.019843
       208         -0.87815714        0.019843
       209         -0.87818507        0.019843
       210         -0.87819215        0.019843
       211         -0.87819673        0.019843
       212         -0.87820688        0.019843
       213         -0.87821553        0.019843
       214         -0.87822696        0.019843
       215         -0.87825143        0.019843
       216         -0.87825658        0.019843
       217         -0.87826139        0.019843
       218         -0.87827560        0.019843
       219         -0.87828352        0.019843
       220         -0.87829116        0.019843
       221         -0.87829701        0.019843
       222         -0.87831069        0.019843
       223         -0.87832426        0.019843
       224         -0.87832426        0.019843
       225         -0.87832811        0.019843
       226         -0.87834462        0.019843
       227         -0.87836149        0.019843
       228         -0.87836203        0.019843
       229         -0.87836692        0.018372
       230         -0.87837511        0.018372
       231         -0.87837849        0.018372
       232         -0.87839450        0.018372
       233         -0.87839686        0.018372
       234         -0.87839742        0.018372
       235         -0.87842968        0.018372
       236         -0.87844861        0.018372
       237         -0.87847117        0.018372
       238         -0.87848125        0.018372
       239         -0.87848322        0.018372
       240         -0.87848580        0.018372
       241         -0.87849631        0.018372
       242         -0.87849949        0.018372
       243         -0.87852313        0.018372
       244         -0.87853530        0.018372
       245         -0.87853648        0.018372
       246         -0.87855482        0.018372
       247         -0.87856305        0.018372
       248         -0.87856417        0.018372
       249         -0.87857055        0.018372
       250         -0.87857817        0.018372
       251         -0.87859095        0.018372
       252         -0.87859342        0.018372
       253         -0.87859445        0.018372
       254         -0.87860894        0.018372
       255         -0.87861373        0.018372
       256         -0.87862189        0.018372
       257         -0.87863410        0.018372
       258         -0.87863597        0.018372
       259         -0.87864329        0.018372
       260         -0.87864344        0.018372
       261         -0.87865058        0.018372
       262         -0.87865759        0.018372
       263         -0.87866672        0.018372
       264         -0.87868830        0.018372
       265         -0.87869911        0.018372
       266         -0.87869937        0.018372
       267         -0.87871239        0.018372
       268         -0.87871785        0.018372
       269         -0.87872030        0.018372
       270         -0.87873062        0.018372
       271         -0.87874048        0.018372
       272         -0.87874159        0.018372
       273         -0.87874542        0.018372
       274         -0.87875308        0.018372
       275         -0.87875915        0.017010
       276         -0.87876232        0.017010
       277         -0.87877829        0.017010
       278         -0.87878607        0.017010
       279         -0.87878999        0.017010
       280         -0.87880690        0.017010
       281         -0.87881055        0.017010
       282         -0.87881277        0.017010
       283         -0.87881963        0.017010
       284         -0.87882095        0.017010
       285         -0.87883065        0.017010
       286         -0.87884689        0.017010
       287         -0.87885739        0.017010
       288         -0.87886172        0.017010
       289         -0.87886465        0.017010
       290         -0.87887157        0.017010
       291         -0.87888340        0.017010
       292         -0.87889235        0.017010
       293         -0.87889272        0.017010
       294         -0.87889461        0.017010
       295         -0.87890329        0.017010
       296         -0.87891684        0.017010
       297         -0.87892158        0.017010
       298         -0.87892186        0.017010
       299         -0.87893035        0.017010
       300         -0.87893932        0.017010
       301         -0.87894469        0.017010
       302         -0.87894477        0.017010
       303         -0.87895050        0.017010
       304         -0.87895438        0.017010
       305         -0.87897029        0.017010
       306         -0.87897723        0.017010
       307         -0.87897838        0.017010
       308         -0.87897847        0.017010
       309         -0.87897903        0.017010
       310         -0.87899197        0.017010
       311         -0.87901410        0.017010
       312         -0.87902076        0.017010
       313         -0.87903768        0.017010
       314         -0.87904550        0.017010
       315         -0.87904882        0.017010
       316         -0.87905018        0.017010
       317         -0.87905991        0.017010
       318         -0.87906013        0.017010
       319         -0.87907047        0.017010
       320         -0.87907606        0.017010
       321         -0.87907614        0.017010
       322         -0.87908172        0.017010
       323         -0.87910350        0.017010
       324         -0.87910680        0.017010
       325         -0.87912062        0.017010
       326         -0.87914932        0.017010
       327         -0.87915833        0.017010
       328         -0.87916678        0.017010
       329         -0.87918173        0.017010
       330         -0.87918228        0.017010
       331         -0.87918404        0.017010
       332         -0.87919373        0.017010
       333         -0.87921166        0.017010
       334         -0.87922019        0.017010
       335         -0.87924454        0.017010
       336         -0.87925827        0.017010
       337         -0.87928252        0.017010
       338         -0.87930379        0.017010
       339         -0.87931318        0.017010
       340         -0.87932021        0.017010
       341         -0.87932269        0.017010
       342         -0.87933203        0.017010
       343         -0.87933449        0.017010
       344         -0.87933835        0.017010
       345         -0.87934180        0.017010
       346         -0.87935402        0.017010
       347         -0.87936074        0.017010
       348         -0.87940766        0.017010
       349         -0.87940956        0.017010
       350         -0.87941213        0.017010
       351         -0.87941595        0.017010
       352         -0.87941723        0.017010
       353         -0.87942574        0.017010
       354         -0.87942780        0.017010
       355         -0.87943141        0.017010
       356         -0.87944066        0.017010
       357         -0.87946118        0.017010
       358         -0.87947372        0.017010
       359         -0.87947789        0.017010
       360         -0.87949553        0.017010
       361         -0.87949678        0.017010
       362         -0.87949906        0.017010
       363         -0.87950026        0.017010
       364         -0.87950240        0.017010
       365         -0.87950294        0.017010
       366         -0.87950598        0.017010
       367         -0.87951021        0.017010
       368         -0.87951554        0.017010
       369         -0.87951775        0.017010
       370         -0.87952503        0.017010
       371         -0.87954599        0.017010
       372         -0.87955893        0.017010
       373         -0.87956930        0.017010
       374         -0.87959063        0.017010
       375         -0.87960582        0.017010
       376         -0.87961639        0.017010
       377         -0.87963193        0.015749
       378         -0.87963971        0.015749
       379         -0.87964374        0.015749
       380         -0.87964480        0.015749
       381         -0.87966433        0.015749
       382         -0.87966553        0.015749
       383         -0.87968610        0.015749
       384         -0.87969359        0.015749
       385         -0.87970697        0.015749
       386         -0.87972261        0.015749
       387         -0.87973688        0.015749
       388         -0.87973993        0.015749
       389         -0.87974158        0.015749
       390         -0.87974234        0.015749
       391         -0.87974671        0.015749
       392         -0.87975261        0.015749
       393         -0.87975796        0.014582
       394         -0.87976123        0.014582
       395         -0.87976499        0.014582
       396         -0.87976890        0.014582
       397         -0.87977078        0.014582
       398         -0.87977655        0.014582
       399         -0.87978108        0.014582
       400         -0.87978441        0.014582
       401         -0.87979865        0.014582
       402         -0.87980660        0.014582
       403         -0.87982308        0.014582
       404         -0.87982316        0.014582
       405         -0.87984505        0.014582
       406         -0.87985064        0.014582
       407         -0.87985986        0.014582
       408         -0.87986115        0.014582
       409         -0.87987230        0.014582
       410         -0.87987500        0.014582
       411         -0.87987838        0.014582
       412         -0.87988044        0.014582
       413         -0.87988295        0.014582
       414         -0.87989109        0.014582
       415         -0.87989873        0.014582
       416         -0.87990862        0.014582
       417         -0.87991646        0.014582
       418         -0.87992460        0.014582
       419         -0.87992480        0.014582
       420         -0.87993165        0.014582
       421         -0.87993318        0.014582
       422         -0.87993340        0.014582
       423         -0.87995621        0.014582
       424         -0.87996088        0.014582
       425         -0.87996855        0.014582
       426         -0.87997135        0.014582
       427         -0.87997804        0.014582
       428         -0.87998425        0.014582
       429         -0.87998536        0.014582
       430         -0.87998646        0.014582
       431         -0.87999660        0.014582
       432         -0.88001943        0.014582
       433         -0.88002173        0.014582
       434         -0.88002480        0.014582
       435         -0.88002911        0.014582
       436         -0.88004647        0.014582
       437         -0.88004671        0.014582
       438         -0.88004976        0.014582
       439         -0.88006073        0.014582
       440         -0.88006563        0.014582
       441         -0.88006654        0.014582
       442         -0.88007065        0.014582
       443         -0.88008321        0.014582
       444         -0.88008939        0.014582
       445         -0.88009278        0.014582
       446         -0.88009839        0.014582
       447         -0.88010043        0.014582
       448         -0.88010453        0.014582
       449         -0.88011246        0.014582
       450         -0.88011848        0.014582
       451         -0.88013078        0.014582
       452         -0.88013183        0.014582
       453         -0.88013341        0.014582
       454         -0.88015189        0.014582
       455         -0.88015690        0.014582
       456         -0.88015825        0.014582
       457         -0.88016241        0.014582
       458         -0.88016431        0.014582
       459         -0.88016491        0.014582
       460         -0.88018183        0.014582
       461         -0.88018561        0.014582
       462         -0.88018999        0.014582
       463         -0.88019464        0.014582
       464         -0.88019507        0.014582
       465         -0.88019598        0.014582
       466         -0.88020119        0.014582
       467         -0.88020662        0.014582
       468         -0.88020948        0.014582
       469         -0.88021671        0.014582
       470         -0.88022562        0.014582
       471         -0.88022580        0.014582
       472         -0.88022819        0.014582
       473         -0.88023027        0.014582
       474         -0.88023154        0.014582
       475         -0.88024309        0.014582
       476         -0.88025471        0.014582
       477         -0.88025780        0.014582
       478         -0.88026668        0.014582
       479         -0.88027212        0.014582
       480         -0.88027418        0.014582
       481         -0.88028279        0.014582
       482         -0.88028394        0.014582
       483         -0.88029515        0.014582
       484         -0.88030232        0.014582
       485         -0.88030577        0.014582
       486         -0.88031355        0.014582
       487         -0.88031526        0.014582
       488         -0.88032250        0.014582
       489         -0.88032524        0.014582
       490         -0.88032903        0.014582
       491         -0.88033433        0.014582
       492         -0.88033739        0.014582
       493         -0.88035406        0.014582
       494         -0.88035690        0.014582
       495         -0.88036236        0.014582
       496         -0.88036593        0.014582
       497         -0.88036654        0.014582
       498         -0.88038516        0.014582
       499         -0.88039212        0.014582
       500         -0.88039481        0.014582
       501         -0.88040506        0.014582
       502         -0.88041255        0.014582
       503         -0.88041526        0.014582
       504         -0.88042448        0.014582
       505         -0.88043144        0.014582
       506         -0.88043438        0.014582
       507         -0.88043623        0.014582
       508         -0.88044377        0.014582
       509         -0.88044759        0.014582
       510         -0.88044861        0.014582
       511         -0.88046815        0.014582
       512         -0.88047936        0.014582
       513         -0.88048936        0.014582
       514         -0.88049216        0.014582
       515         -0.88049287        0.014582
       516         -0.88049362        0.014582
       517         -0.88050444        0.014582
       518         -0.88052094        0.014582
       519         -0.88053717        0.014582
       520         -0.88054717        0.014582
       521         -0.88055448        0.014582
       522         -0.88056732        0.014582
       523         -0.88057071        0.014582
       524         -0.88057143        0.014582
       525         -0.88058114        0.014582
       526         -0.88058392        0.014582
       527         -0.88058805        0.014582
       528         -0.88059430        0.014582
       529         -0.88060069        0.014582
       530         -0.88062099        0.014582
       531         -0.88062374        0.014582
       532         -0.88062449        0.014582
       533         -0.88062646        0.014582
       534         -0.88062652        0.014582
       535         -0.88063253        0.014582
       536         -0.88063421        0.014582
       537         -0.88065545        0.014582
       538         -0.88066038        0.014582
       539         -0.88067135        0.014582
       540         -0.88067528        0.014582
       541         -0.88067543        0.014582
       542         -0.88068804        0.014582
       543         -0.88069694        0.014582
       544         -0.88070316        0.014582
       545         -0.88071082        0.014582
       546         -0.88071681        0.014582
       547         -0.88071692        0.014582
       548         -0.88072581        0.014582
       549         -0.88074073        0.014582
       550         -0.88074374        0.014582
       551         -0.88075537        0.014582
       552         -0.88076546        0.014582
       553         -0.88077384        0.014582
       554         -0.88078406        0.014582
       555         -0.88078480        0.014582
       556         -0.88078501        0.014582
       557         -0.88078776        0.014582
       558         -0.88080338        0.014582
       559         -0.88080479        0.014582
       560         -0.88080523        0.014582
       561         -0.88082354        0.014582
       562         -0.88082607        0.014582
       563         -0.88082648        0.014582
       564         -0.88082853        0.014582
       565         -0.88083593        0.014582
       566         -0.88083773        0.014582
       567         -0.88084085        0.014582
       568         -0.88084412        0.014582
       569         -0.88084703        0.014582
       570         -0.88084973        0.014582
       571         -0.88086639        0.014582
       572         -0.88086935        0.014582
       573         -0.88087590        0.014582
       574         -0.88088605        0.014582
       575         -0.88090284        0.014582
       576         -0.88090713        0.014582
       577         -0.88092223        0.014582
       578         -0.88093875        0.014582
       579         -0.88094953        0.014582
       580         -0.88096356        0.014582
       581         -0.88097855        0.014582
       582         -0.88097890        0.014582
       583         -0.88098666        0.014582
       584         -0.88099239        0.014582
       585         -0.88100253        0.014582
       586         -0.88101302        0.014582
       587         -0.88101513        0.014582
       588         -0.88101521        0.014582
       589         -0.88101615        0.014582
       590         -0.88102727        0.014582
       591         -0.88103982        0.014582
       592         -0.88105137        0.014582
       593         -0.88105638        0.014582
       594         -0.88105874        0.014582
       595         -0.88106447        0.014582
       596         -0.88107432        0.014582
       597         -0.88107827        0.014582
       598         -0.88108007        0.014582
       599         -0.88108222        0.014582
       600         -0.88110319        0.014582
       601         -0.88110335        0.014582
       602         -0.88110569        0.014582
       603         -0.88111129        0.014582
       604         -0.88111415        0.014582
       605         -0.88111440        0.014582
       606         -0.88111571        0.014582
       607         -0.88111951        0.014582
       608         -0.88112502        0.014582
       609         -0.88113296        0.014582
       610         -0.88114066        0.014582
       611         -0.88116386        0.014582
       612         -0.88116965        0.014582
       613         -0.88118240        0.014582
       614         -0.88118472        0.014582
       615         -0.88120393        0.013501
       616         -0.88120600        0.013501
       617         -0.88121145        0.013501
       618         -0.88121579        0.013501
       619         -0.88122845        0.013501
       620         -0.88123044        0.013501
       621         -0.88123084        0.013501
       622         -0.88124135        0.013501
       623         -0.88124275        0.013501
       624         -0.88125952        0.013501
       625         -0.88127117        0.013501
       626         -0.88127191        0.013501
       627         -0.88127366        0.013501
       628         -0.88128309        0.013501
       629         -0.88128845        0.013501
       630         -0.88130003        0.013501
       631         -0.88130519        0.013501
       632         -0.88131817        0.013501
       633         -0.88132015        0.013501
       634         -0.88132321        0.013501
       635         -0.88133831        0.013501
       636         -0.88134482        0.013501
       637         -0.88134950        0.013501
       638         -0.88135609        0.013501
       639         -0.88135962        0.013501
       640         -0.88137310        0.013501
       641         -0.88137832        0.013501
       642         -0.88138123        0.013501
       643         -0.88138530        0.013501
       644         -0.88138753        0.013501
       645         -0.88139497        0.013501
       646         -0.88139917        0.013501
       647         -0.88139933        0.013501
       648         -0.88140557        0.013501
       649         -0.88140998        0.013501
       650         -0.88141166        0.013501
       651         -0.88142529        0.013501
       652         -0.88142902        0.013501
       653         -0.88145326        0.013501
       654         -0.88146676        0.013501
       655         -0.88147427        0.013501
       656         -0.88147664        0.013501
       657         -0.88148103        0.013501
       658         -0.88148492        0.013501
       659         -0.88148760        0.013501
       660         -0.88148972        0.013501
       661         -0.88150231        0.013501
       662         -0.88150235        0.013501
       663         -0.88150908        0.013501
       664         -0.88151903        0.013501
       665         -0.88152098        0.013501
       666         -0.88152585        0.013501
       667         -0.88153431        0.013501
       668         -0.88154780        0.013501
       669         -0.88154860        0.013501
       670         -0.88155651        0.013501
       671         -0.88155660        0.013501
       672         -0.88155813        0.013501
       673         -0.88156058        0.013501
       674         -0.88157070        0.013501
       675         -0.88157386        0.013501
       676         -0.88157628        0.013501
       677         -0.88157714        0.013501
       678         -0.88158456        0.013501
       679         -0.88158841        0.013501
       680         -0.88160446        0.013501
       681         -0.88160957        0.013501
       682         -0.88161148        0.013501
       683         -0.88161301        0.013501
       684         -0.88161746        0.013501
       685         -0.88162638        0.013501
       686         -0.88163052        0.013501
       687         -0.88163519        0.013501
       688         -0.88164107        0.013501
       689         -0.88164157        0.013501
       690         -0.88165780        0.013501
       691         -0.88166173        0.013501
       692         -0.88166923        0.013501
       693         -0.88167083        0.013501
       694         -0.88167375        0.013501
       695         -0.88168443        0.013501
       696         -0.88168745        0.013501
       697         -0.88168998        0.013501
       698         -0.88169775        0.013501
       699         -0.88170634        0.013501
       700         -0.88170697        0.013501
       701         -0.88171577        0.013501
       702         -0.88171604        0.013501
       703         -0.88171847        0.013501
       704         -0.88172252        0.012500
       705         -0.88173057        0.012500
       706         -0.88173087        0.012500
       707         -0.88173663        0.012500
       708         -0.88173683        0.012500
       709         -0.88174632        0.012500
       710         -0.88174819        0.012500
       711         -0.88175254        0.012500
       712         -0.88175955        0.012500
       713         -0.88175968        0.012500
       714         -0.88176201        0.012500
       715         -0.88177041        0.012500
       716         -0.88177830        0.012500
       717         -0.88177903        0.012500
       718         -0.88178796        0.012500
       719         -0.88178832        0.012500
       720         -0.88178876        0.012500
       721         -0.88179179        0.012500
       722         -0.88180620        0.012500
       723         -0.88182058        0.012500
       724         -0.88182347        0.012500
       725         -0.88183019        0.012500
       726         -0.88184542        0.012500
       727         -0.88185236        0.012500
       728         -0.88185928        0.012500
       729         -0.88186595        0.012500
       730         -0.88186733        0.012500
       731         -0.88187917        0.012500
       732         -0.88188592        0.012500
       733         -0.88189350        0.012500
       734         -0.88189512        0.012500
       735         -0.88190434        0.012500
       736         -0.88191032        0.012500
       737         -0.88191205        0.012500
       738         -0.88191841        0.012500
       739         -0.88192568        0.012500
       740         -0.88193116        0.012500
       741         -0.88193306        0.012500
       742         -0.88193604        0.012500
       743         -0.88193859        0.012500
       744         -0.88194003        0.012500
       745         -0.88194252        0.012500
       746         -0.88194306        0.012500
       747         -0.88195662        0.012500
       748         -0.88195858        0.012500
       749         -0.88195878        0.012500
       750         -0.88197125        0.012500
       751         -0.88197340        0.012500
       752         -0.88198222        0.012500
       753         -0.88198854        0.012500
       754         -0.88198962        0.012500
       755         -0.88199563        0.012500
       756         -0.88199730        0.012500
       757         -0.88200252        0.012500
       758         -0.88200572        0.012500
       759         -0.88200982        0.012500
       760         -0.88201807        0.012500
       761         -0.88202221        0.012500
       762         -0.88202632        0.012500
       763         -0.88202764        0.012500
       764         -0.88203933        0.012500
       765         -0.88204288        0.012500
       766         -0.88204326        0.012500
       767         -0.88204861        0.012500
       768         -0.88205071        0.012500
       769         -0.88206038        0.012500
       770         -0.88206418        0.012500
       771         -0.88207197        0.012500
       772         -0.88207378        0.012500
       773         -0.88207431        0.012500
       774         -0.88208646        0.012500
       775         -0.88209049        0.012500
       776         -0.88209885        0.012500
       777         -0.88210483        0.012500
       778         -0.88210762        0.012500
       779         -0.88210785        0.012500
       780         -0.88212050        0.012500
       781         -0.88212241        0.012500
       782         -0.88212373        0.012500
       783         -0.88212387        0.012500
       784         -0.88213222        0.012500
       785         -0.88213479        0.012500
       786         -0.88213732        0.012500
       787         -0.88213971        0.012500
       788         -0.88214710        0.012500
       789         -0.88215406        0.012500
       790         -0.88216130        0.012500
       791         -0.88217113        0.012500
       792         -0.88218451        0.012500
       793         -0.88219009        0.011573
       794         -0.88219119        0.011573
       795         -0.88219199        0.011573
       796         -0.88219336        0.011573
       797         -0.88219715        0.011573
       798         -0.88220508        0.011573
       799         -0.88220562        0.011573
       800         -0.88220573        0.011573
       801         -0.88220987        0.011573
       802         -0.88221571        0.011573
       803         -0.88222400        0.011573
       804         -0.88222953        0.011573
       805         -0.88223102        0.011573
       806         -0.88223777        0.011573
       807         -0.88224240        0.011573
       808         -0.88224494        0.011573
       809         -0.88224518        0.011573
       810         -0.88225047        0.011573
       811         -0.88225057        0.011573
       812         -0.88225471        0.011573
       813         -0.88226864        0.011573
       814         -0.88227012        0.011573
       815         -0.88227203        0.011573
       816         -0.88227732        0.011573
       817         -0.88228220        0.011573
       818         -0.88229169        0.011573
       819         -0.88229465        0.011573
       820         -0.88229611        0.011573
       821         -0.88230041        0.011573
       822         -0.88230319        0.011573
       823         -0.88230383        0.011573
       824         -0.88230784        0.011573
       825         -0.88231092        0.011573
       826         -0.88231589        0.011573
       827         -0.88231963        0.011573
       828         -0.88232335        0.011573
       829         -0.88232763        0.011573
       830         -0.88233058        0.011573
       831         -0.88234100        0.011573
       832         -0.88234910        0.011573
       833         -0.88235268        0.011573
       834         -0.88235308        0.011573
       835         -0.88235369        0.011573
       836         -0.88235513        0.011573
       837         -0.88236084        0.011573
       838         -0.88236558        0.011573
       839         -0.88237438        0.011573
       840         -0.88237944        0.011573
       841         -0.88237956        0.011573
       842         -0.88238018        0.011573
       843         -0.88238296        0.011573
       844         -0.88238713        0.011573
       845         -0.88238951        0.011573
       846         -0.88238969        0.011573
       847         -0.88239258        0.011573
       848         -0.88239438        0.011573
       849         -0.88240041        0.011573
       850         -0.88240659        0.011573
       851         -0.88240849        0.010716
       852         -0.88241244        0.010716
       853         -0.88241782        0.010716
       854         -0.88241931        0.010716
       855         -0.88242188        0.010716
       856         -0.88242471        0.010716
       857         -0.88242563        0.010716
       858         -0.88242881        0.010716
       859         -0.88243175        0.010716
       860         -0.88243676        0.010716
       861         -0.88243991        0.010716
       862         -0.88244256        0.010716
       863         -0.88244295        0.010716
       864         -0.88244455        0.010716
       865         -0.88244470        0.010716
       866         -0.88245193        0.010716
       867         -0.88245665        0.010716
       868         -0.88245845        0.010716
       869         -0.88245865        0.010716
       870         -0.88246629        0.010716
       871         -0.88247492        0.010716
       872         -0.88247919        0.010716
       873         -0.88248769        0.010716
       874         -0.88249217        0.010716
       875         -0.88249220        0.010716
       876         -0.88249493        0.010716
       877         -0.88250233        0.010716
       878         -0.88250473        0.010716
       879         -0.88250804        0.010716
       880         -0.88251317        0.010716
       881         -0.88251747        0.010716
       882         -0.88252306        0.010716
       883         -0.88252859        0.010716
       884         -0.88252879        0.010716
       885         -0.88253333        0.010716
       886         -0.88254530        0.010716
       887         -0.88255097        0.010716
       888         -0.88255573        0.010716
       889         -0.88255817        0.010716
       890         -0.88256244        0.010716
       891         -0.88256514        0.010716
       892         -0.88257013        0.010716
       893         -0.88257682        0.010716
       894         -0.88257710        0.010716
       895         -0.88258173        0.010716
       896         -0.88259015        0.010716
       897         -0.88259682        0.010716
       898         -0.88260079        0.010716
       899         -0.88260754        0.010716
       900         -0.88262037        0.010716
       901         -0.88262566        0.010716
       902         -0.88262768        0.010716
       903         -0.88263032        0.010716
       904         -0.88263896        0.010716
       905         -0.88264801        0.010716
       906         -0.88265597        0.010716
       907         -0.88265967        0.010716
       908         -0.88266598        0.010716
       909         -0.88266659        0.010716
       910         -0.88266977        0.010716
       911         -0.88267836        0.010716
       912         -0.88267863        0.010716
       913         -0.88268711        0.010716
       914         -0.88269508        0.010716
       915         -0.88270059        0.010716
       916         -0.88270503        0.010716
       917         -0.88271480        0.010716
       918         -0.88271968        0.010716
       919         -0.88272640        0.009921
       920         -0.88272812        0.009921
       921         -0.88273722        0.009921
       922         -0.88274010        0.009921
       923         -0.88274283        0.009921
       924         -0.88274383        0.009186
       925         -0.88275310        0.009186
       926         -0.88275438        0.009186
       927         -0.88275716        0.009186
       928         -0.88276334        0.009186
       929         -0.88276619        0.008505
       930         -0.88276673        0.008505
       931         -0.88277295        0.008505
       932         -0.88277457        0.008505
       933         -0.88277594        0.008505
       934         -0.88277713        0.008505
       935         -0.88277861        0.008505
       936         -0.88278047        0.008505
       937         -0.88278179        0.008505
       938         -0.88278218        0.008505
       939         -0.88278427        0.008505
       940         -0.88279441        0.008505
       941         -0.88280385        0.008505
       942         -0.88281313        0.008505
       943         -0.88281810        0.008505
       944         -0.88282017        0.008505
       945         -0.88282364        0.008505
       946         -0.88282989        0.008505
       947         -0.88283250        0.008505
       948         -0.88283309        0.008505
       949         -0.88284024        0.008505
       950         -0.88284774        0.008505
       951         -0.88285071        0.008505
       952         -0.88285570        0.008505
       953         -0.88285783        0.008505
       954         -0.88285886        0.008505
       955         -0.88286141        0.008505
       956         -0.88286158        0.008505
       957         -0.88286970        0.008505
       958         -0.88287309        0.008505
       959         -0.88287648        0.008505
       960         -0.88288243        0.008505
       961         -0.88288261        0.008505
       962         -0.88288714        0.008505
       963         -0.88289109        0.008505
       964         -0.88289502        0.008505
       965         -0.88289752        0.008505
       966         -0.88290073        0.008505
       967         -0.88290089        0.008505
       968         -0.88290447        0.008505
       969         -0.88290535        0.008505
       970         -0.88290867        0.008505
       971         -0.88290879        0.008505
       972         -0.88291270        0.008505
       973         -0.88291410        0.008505
       974         -0.88292008        0.008505
       975         -0.88292009        0.008505
       976         -0.88292604        0.008505
       977         -0.88292791        0.008505
       978         -0.88293025        0.008505
       979         -0.88293116        0.008505
       980         -0.88293218        0.008505
       981         -0.88293765        0.008505
       982         -0.88294706        0.008505
       983         -0.88295035        0.008505
       984         -0.88295137        0.008505
       985         -0.88295518        0.008505
       986         -0.88295766        0.008505
       987         -0.88296677        0.008505
       988         -0.88296840        0.008505
       989         -0.88297436        0.008505
       990         -0.88297808        0.008505
       991         -0.88297828        0.008505
       992         -0.88297885        0.008505
       993         -0.88297995        0.008505
       994         -0.88298303        0.008505
       995         -0.88299458        0.008505
       996         -0.88299583        0.008505
       997         -0.88299702        0.008505
       998         -0.88300386        0.008505
       999         -0.88300547        0.008505
      1000         -0.88300718        0.008505
      1001         -0.88301238        0.008505
      1002         -0.88301920        0.008505
      1003         -0.88302044        0.008505
      1004         -0.88302140        0.008505
      1005         -0.88302232        0.008505
      1006         -0.88303185        0.008505
      1007         -0.88303690        0.008505
      1008         -0.88303905        0.008505
      1009         -0.88303932        0.008505
      1010         -0.88303988        0.008505
      1011         -0.88304070        0.008505
      1012         -0.88304231        0.008505
      1013         -0.88304416        0.008505
      1014         -0.88304892        0.008505
      1015         -0.88305141        0.008505
      1016         -0.88305745        0.008505
      1017         -0.88305798        0.008505
      1018         -0.88305956        0.008505
      1019         -0.88306037        0.008505
      1020         -0.88306681        0.008505
      1021         -0.88306836        0.008505
      1022         -0.88306899        0.008505
      1023         -0.88307934        0.008505
      1024         -0.88308192        0.008505
      1025         -0.88308283        0.008505
      1026         -0.88309343        0.008505
      1027         -0.88309582        0.008505
      1028         -0.88309850        0.008505
      1029         -0.88309980        0.008505
      1030         -0.88310148        0.008505
      1031         -0.88310710        0.008505
      1032         -0.88310992        0.008505
      1033         -0.88311237        0.008505
      1034         -0.88311492        0.008505
      1035         -0.88311737        0.008505
      1036         -0.88311778        0.008505
      1037         -0.88311873        0.008505
      1038         -0.88311970        0.008505
      1039         -0.88312479        0.008505
      1040         -0.88313152        0.008505
      1041         -0.88313196        0.008505
      1042         -0.88313301        0.008505
      1043         -0.88313414        0.008505
      1044         -0.88313535        0.008505
      1045         -0.88313686        0.008505
      1046         -0.88314332        0.008505
      1047         -0.88314527        0.008505
      1048         -0.88314610        0.008505
      1049         -0.88314723        0.008505
      1050         -0.88315355        0.008505
      1051         -0.88315657        0.008505
      1052         -0.88315759        0.008505
      1053         -0.88315794        0.008505
      1054         -0.88316954        0.008505
      1055         -0.88317477        0.008505
      1056         -0.88317762        0.008505
      1057         -0.88317804        0.008505
      1058         -0.88318040        0.008505
      1059         -0.88318267        0.008505
      1060         -0.88318551        0.008505
      1061         -0.88318581        0.008505
      1062         -0.88319130        0.008505
      1063         -0.88319913        0.008505
      1064         -0.88320181        0.008505
      1065         -0.88320337        0.008505
      1066         -0.88320527        0.008505
      1067         -0.88321057        0.008505
      1068         -0.88321120        0.008505
      1069         -0.88321155        0.008505
      1070         -0.88321269        0.008505
      1071         -0.88321280        0.008505
      1072         -0.88321495        0.008505
      1073         -0.88321603        0.008505
      1074         -0.88321686        0.008505
      1075         -0.88321823        0.008505
      1076         -0.88321912        0.008505
      1077         -0.88322071        0.008505
      1078         -0.88322370        0.008505
      1079         -0.88322705        0.008505
      1080         -0.88323300        0.008505
      1081         -0.88323627        0.008505
      1082         -0.88323978        0.008505
      1083         -0.88324368        0.008505
      1084         -0.88324381        0.008505
      1085         -0.88325057        0.008505
      1086         -0.88325369        0.008505
      1087         -0.88325387        0.008505
      1088         -0.88325806        0.008505
      1089         -0.88325887        0.008505
      1090         -0.88325948        0.008505
      1091         -0.88326610        0.008505
      1092         -0.88326980        0.008505
      1093         -0.88327022        0.008505
      1094         -0.88327141        0.008505
      1095         -0.88327212        0.008505
      1096         -0.88327553        0.008505
      1097         -0.88327902        0.007875
      1098         -0.88328326        0.007875
      1099         -0.88328498        0.007875
      1100         -0.88328606        0.007875
      1101         -0.88328693        0.007875
      1102         -0.88328887        0.007875
      1103         -0.88329295        0.007875
      1104         -0.88329386        0.007875
      1105         -0.88329998        0.007875
      1106         -0.88330278        0.007875
      1107         -0.88330683        0.007875
      1108         -0.88330824        0.007875
      1109         -0.88331078        0.007875
      1110         -0.88331476        0.007875
      1111         -0.88331856        0.007875
      1112         -0.88331950        0.007875
      1113         -0.88332365        0.007875
      1114         -0.88332631        0.007875
      1115         -0.88333295        0.007875
      1116         -0.88333949        0.007875
      1117         -0.88334113        0.007875
      1118         -0.88334395        0.007875
      1119         -0.88334586        0.007875
      1120         -0.88334801        0.007875
      1121         -0.88334875        0.007875
      1122         -0.88334954        0.007875
      1123         -0.88335083        0.007875
      1124         -0.88335462        0.007875
      1125         -0.88335795        0.007875
      1126         -0.88336043        0.007875
      1127         -0.88336487        0.007875
      1128         -0.88336751        0.007875
      1129         -0.88337097        0.007875
      1130         -0.88337373        0.007875
      1131         -0.88337504        0.007875
      1132         -0.88337679        0.007875
      1133         -0.88337830        0.007875
      1134         -0.88337977        0.007875
      1135         -0.88338219        0.007875
      1136         -0.88338524        0.007875
      1137         -0.88338942        0.007875
      1138         -0.88339174        0.007875
      1139         -0.88339364        0.007875
      1140         -0.88339711        0.007875
      1141         -0.88339875        0.007875
      1142         -0.88340052        0.007875
      1143         -0.88340272        0.007875
      1144         -0.88340681        0.007875
      1145         -0.88341070        0.007875
      1146         -0.88341440        0.007875
      1147         -0.88341763        0.007875
      1148         -0.88341812        0.007875
      1149         -0.88342233        0.007875
      1150         -0.88342625        0.007875
      1151         -0.88342639        0.007875
      1152         -0.88342916        0.007875
      1153         -0.88343316        0.007875
      1154         -0.88343646        0.007875
      1155         -0.88344105        0.007875
      1156         -0.88344119        0.007875
      1157         -0.88344498        0.007875
      1158         -0.88344607        0.007875
      1159         -0.88344879        0.007875
      1160         -0.88345226        0.007875
      1161         -0.88345706        0.007875
      1162         -0.88346021        0.007875
      1163         -0.88346275        0.007875
      1164         -0.88346420        0.007875
      1165         -0.88346731        0.007875
      1166         -0.88346879        0.007875
      1167         -0.88347479        0.007875
      1168         -0.88347637        0.007875
      1169         -0.88348073        0.007875
      1170         -0.88348153        0.007875
      1171         -0.88348316        0.007875
      1172         -0.88348903        0.007875
      1173         -0.88349420        0.007875
      1174         -0.88349842        0.007875
      1175         -0.88350061        0.007875
      1176         -0.88350230        0.007875
      1177         -0.88350496        0.007875
      1178         -0.88350617        0.007875
      1179         -0.88350972        0.007875
      1180         -0.88351029        0.007875
      1181         -0.88351478        0.007875
      1182         -0.88351574        0.007875
      1183         -0.88351731        0.007875
      1184         -0.88351830        0.007875
      1185         -0.88351841        0.007875
      1186         -0.88352596        0.007875
      1187         -0.88352704        0.007875
      1188         -0.88352766        0.007875
      1189         -0.88353002        0.007875
      1190         -0.88353178        0.007875
      1191         -0.88353212        0.007875
      1192         -0.88353553        0.007875
      1193         -0.88353802        0.007875
      1194         -0.88354087        0.007875
      1195         -0.88354184        0.007875
      1196         -0.88354349        0.007875
      1197         -0.88354509        0.007875
      1198         -0.88354898        0.007875
      1199         -0.88355293        0.007875
      1200         -0.88355322        0.007875
      1201         -0.88355691        0.007875
      1202         -0.88355699        0.007875
      1203         -0.88355760        0.007875
      1204         -0.88355815        0.007875
      1205         -0.88356384        0.007875
      1206         -0.88356619        0.007875
      1207         -0.88356867        0.007875
      1208         -0.88357101        0.007875
      1209         -0.88357204        0.007875
      1210         -0.88357379        0.007875
      1211         -0.88357811        0.007875
      1212         -0.88358107        0.007875
      1213         -0.88358311        0.007875
      1214         -0.88358452        0.007875
      1215         -0.88358464        0.007875
      1216         -0.88358474        0.007875
      1217         -0.88358578        0.007875
      1218         -0.88359107        0.007875
      1219         -0.88359187        0.007875
      1220         -0.88359322        0.007875
      1221         -0.88359763        0.007875
      1222         -0.88360153        0.007875
      1223         -0.88360219        0.007875
      1224         -0.88360265        0.007875
      1225         -0.88360513        0.007875
      1226         -0.88360878        0.007875
      1227         -0.88360959        0.007875
      1228         -0.88360999        0.007875
      1229         -0.88361568        0.007875
      1230         -0.88361794        0.007875
      1231         -0.88361992        0.007875
      1232         -0.88362374        0.007875
      1233         -0.88362581        0.007875
      1234         -0.88362623        0.007875
      1235         -0.88362907        0.007875
      1236         -0.88363024        0.007875
      1237         -0.88363548        0.007875
      1238         -0.88363651        0.007875
      1239         -0.88363740        0.007875
      1240         -0.88363778        0.007875
      1241         -0.88363815        0.007875
      1242         -0.88364606        0.007875
      1243         -0.88364631        0.007875
      1244         -0.88364738        0.007875
      1245         -0.88364806        0.007875
      1246         -0.88364926        0.007875
      1247         -0.88365130        0.007875
      1248         -0.88365279        0.007875
      1249         -0.88365379        0.007875
      1250         -0.88365426        0.007875
      1251         -0.88366186        0.007875
      1252         -0.88366253        0.007875
      1253         -0.88366272        0.007875
      1254         -0.88366586        0.007875
      1255         -0.88366587        0.007875
      1256         -0.88366802        0.007875
      1257         -0.88367129        0.007875
      1258         -0.88367138        0.007875
      1259         -0.88367440        0.007875
      1260         -0.88367451        0.007875
      1261         -0.88368204        0.007875
      1262         -0.88368476        0.007875
      1263         -0.88368854        0.007875
      1264         -0.88368975        0.007875
      1265         -0.88369558        0.007875
      1266         -0.88369688        0.007875
      1267         -0.88369787        0.007875
      1268         -0.88370330        0.007875
      1269         -0.88370558        0.007875
      1270         -0.88370857        0.007875
      1271         -0.88371001        0.007875
      1272         -0.88371017        0.007875
      1273         -0.88371270        0.007875
      1274         -0.88371559        0.007875
      1275         -0.88371619        0.007875
      1276         -0.88371988        0.007875
      1277         -0.88372056        0.007875
      1278         -0.88372106        0.007875
      1279         -0.88372470        0.007875
      1280         -0.88373158        0.007875
      1281         -0.88373349        0.007875
      1282         -0.88373719        0.007875
      1283         -0.88373958        0.007875
      1284         -0.88374353        0.007875
      1285         -0.88374772        0.007875
      1286         -0.88375379        0.007875
      1287         -0.88375583        0.007875
      1288         -0.88375836        0.007875
      1289         -0.88376494        0.007875
      1290         -0.88376647        0.007875
      1291         -0.88376712        0.007875
      1292         -0.88376907        0.007875
      1293         -0.88377091        0.007875
      1294         -0.88377227        0.007875
      1295         -0.88377491        0.007875
      1296         -0.88377509        0.007875
      1297         -0.88377612        0.007875
      1298         -0.88377643        0.007875
      1299         -0.88377748        0.007875
      1300         -0.88377919        0.007875
      1301         -0.88378037        0.007875
      1302         -0.88378552        0.007875
      1303         -0.88378702        0.007875
      1304         -0.88378857        0.007875
      1305         -0.88379000        0.007875
      1306         -0.88379282        0.007875
      1307         -0.88379413        0.007875
      1308         -0.88379418        0.007875
      1309         -0.88379571        0.007875
      1310         -0.88379640        0.007875
      1311         -0.88379710        0.007875
      1312         -0.88379796        0.007875
      1313         -0.88380245        0.007875
      1314         -0.88380510        0.007875
      1315         -0.88380576        0.007875
      1316         -0.88380708        0.007875
      1317         -0.88380958        0.007875
      1318         -0.88381055        0.007875
      1319         -0.88381058        0.007875
      1320         -0.88381860        0.007875
      1321         -0.88382493        0.007875
      1322         -0.88382551        0.007875
      1323         -0.88383190        0.007875
      1324         -0.88383267        0.007875
      1325         -0.88383493        0.007875
      1326         -0.88383641        0.007875
      1327         -0.88383793        0.007875
      1328         -0.88383938        0.007875
      1329         -0.88384012        0.007875
      1330         -0.88384083        0.007875
      1331         -0.88384744        0.007875
      1332         -0.88384763        0.007875
      1333         -0.88385227        0.007875
      1334         -0.88385362        0.007875
      1335         -0.88385425        0.007875
      1336         -0.88385571        0.007875
      1337         -0.88385689        0.007875
      1338         -0.88386008        0.007875
      1339         -0.88386171        0.007875
      1340         -0.88386918        0.007875
      1341         -0.88386920        0.007875
      1342         -0.88387150        0.007875
      1343         -0.88387162        0.007875
      1344         -0.88387165        0.007875
      1345         -0.88387555        0.007875
      1346         -0.88387854        0.007875
      1347         -0.88387877        0.007875
      1348         -0.88388004        0.007875
      1349         -0.88388064        0.007875
      1350         -0.88388140        0.007875
      1351         -0.88388189        0.007875
      1352         -0.88388445        0.007875
      1353         -0.88388477        0.007875
      1354         -0.88389017        0.007875
      1355         -0.88389548        0.007875
      1356         -0.88390171        0.007875
      1357         -0.88390251        0.007875
      1358         -0.88390783        0.007875
      1359         -0.88390826        0.007875
      1360         -0.88391081        0.007875
      1361         -0.88391514        0.007875
      1362         -0.88391843        0.007875
      1363         -0.88391924        0.007875
      1364         -0.88391995        0.007875
      1365         -0.88392134        0.007875
      1366         -0.88392806        0.007875
      1367         -0.88393309        0.007875
      1368         -0.88393318        0.007875
      1369         -0.88393640        0.007875
      1370         -0.88393885        0.007875
      1371         -0.88393953        0.007875
      1372         -0.88394036        0.007875
      1373         -0.88394075        0.007875
      1374         -0.88394083        0.007875
      1375         -0.88394110        0.007875
      1376         -0.88394252        0.007875
      1377         -0.88394262        0.007875
      1378         -0.88394416        0.007875
      1379         -0.88394558        0.007875
      1380         -0.88394635        0.007875
      1381         -0.88394880        0.007875
      1382         -0.88395120        0.007875
      1383         -0.88395374        0.007875
      1384         -0.88396346        0.007875
      1385         -0.88396624        0.007875
      1386         -0.88396751        0.007875
      1387         -0.88396859        0.007875
      1388         -0.88397135        0.007875
      1389         -0.88397139        0.007875
      1390         -0.88397434        0.007875
      1391         -0.88397443        0.007875
      1392         -0.88397767        0.007875
      1393         -0.88397847        0.007875
      1394         -0.88398405        0.007875
      1395         -0.88398499        0.007875
      1396         -0.88398893        0.007875
      1397         -0.88399132        0.007875
      1398         -0.88399144        0.007875
      1399         -0.88399451        0.007875
      1400         -0.88399728        0.007875
      1401         -0.88400293        0.007875
      1402         -0.88400605        0.007875
      1403         -0.88400790        0.007875
      1404         -0.88401056        0.007875
      1405         -0.88401207        0.007875
      1406         -0.88401341        0.007875
      1407         -0.88401470        0.007875
      1408         -0.88401626        0.007875
      1409         -0.88401757        0.007875
      1410         -0.88402201        0.007875
      1411         -0.88402369        0.007875
      1412         -0.88402866        0.007875
      1413         -0.88402922        0.007875
      1414         -0.88403002        0.007875
      1415         -0.88403267        0.007875
      1416         -0.88403459        0.007875
      1417         -0.88403513        0.007875
      1418         -0.88403929        0.007875
      1419         -0.88404085        0.007875
      1420         -0.88404160        0.007875
      1421         -0.88404422        0.007875
      1422         -0.88404756        0.007875
      1423         -0.88404926        0.007875
      1424         -0.88405403        0.007875
      1425         -0.88405442        0.007875
      1426         -0.88405799        0.007875
      1427         -0.88406166        0.007875
      1428         -0.88406327        0.007875
      1429         -0.88406573        0.007875
      1430         -0.88406721        0.007875
      1431         -0.88406976        0.007875
      1432         -0.88407442        0.007875
      1433         -0.88407549        0.007875
      1434         -0.88407747        0.007875
      1435         -0.88408116        0.007875
      1436         -0.88408216        0.007875
      1437         -0.88408313        0.007875
      1438         -0.88408378        0.007875
      1439         -0.88408481        0.007875
      1440         -0.88408506        0.007875
      1441         -0.88409066        0.007875
      1442         -0.88409181        0.007875
      1443         -0.88409226        0.007875
      1444         -0.88409637        0.007875
      1445         -0.88409796        0.007875
      1446         -0.88410121        0.007875
      1447         -0.88410530        0.007875
      1448         -0.88410633        0.007875
      1449         -0.88410666        0.007875
      1450         -0.88410704        0.007875
      1451         -0.88410718        0.007875
      1452         -0.88411008        0.007875
      1453         -0.88411161        0.007875
      1454         -0.88411382        0.007875
      1455         -0.88411488        0.007875
      1456         -0.88411858        0.007875
      1457         -0.88411859        0.007875
      1458         -0.88411876        0.007875
      1459         -0.88411958        0.007875
      1460         -0.88411978        0.007875
      1461         -0.88412007        0.007875
      1462         -0.88412425        0.007875
      1463         -0.88412863        0.007875
      1464         -0.88413287        0.007875
      1465         -0.88413344        0.007875
      1466         -0.88413388        0.007875
      1467         -0.88413952        0.007875
      1468         -0.88414201        0.007875
      1469         -0.88414380        0.007875
      1470         -0.88414483        0.007875
      1471         -0.88414555        0.007875
      1472         -0.88414960        0.007875
      1473         -0.88415200        0.007875
      1474         -0.88415231        0.007875
      1475         -0.88415362        0.007875
      1476         -0.88415412        0.007875
      1477         -0.88415811        0.007875
      1478         -0.88416067        0.007875
      1479         -0.88416450        0.007875
      1480         -0.88416593        0.007875
      1481         -0.88416630        0.007875
      1482         -0.88416660        0.007875
      1483         -0.88417184        0.007875
      1484         -0.88417438        0.007875
      1485         -0.88417781        0.007875
      1486         -0.88418308        0.007875
      1487         -0.88418419        0.007875
      1488         -0.88418423        0.007875
      1489         -0.88418690        0.007875
      1490         -0.88418737        0.007875
      1491         -0.88418759        0.007875
      1492         -0.88418917        0.007875
      1493         -0.88419072        0.007875
      1494         -0.88419145        0.007875
      1495         -0.88419292        0.007875
      1496         -0.88419581        0.007875
      1497         -0.88419701        0.007875
      1498         -0.88419975        0.007875
      1499         -0.88420027        0.007875
      1500         -0.88420058        0.007875
      1501         -0.88420286        0.007875
      1502         -0.88421099        0.007875
      1503         -0.88421245        0.007875
      1504         -0.88421590        0.007875
      1505         -0.88421611        0.007875
      1506         -0.88421665        0.007875
      1507         -0.88421710        0.007875
      1508         -0.88422050        0.007875
      1509         -0.88422387        0.007875
      1510         -0.88422535        0.007875
      1511         -0.88422690        0.007875
      1512         -0.88422721        0.007875
      1513         -0.88423401        0.007875
      1514         -0.88423751        0.007875
      1515         -0.88423927        0.007875
      1516         -0.88424395        0.007875
      1517         -0.88424439        0.007875
      1518         -0.88424611        0.007875
      1519         -0.88424805        0.007875
      1520         -0.88424893        0.007875
      1521         -0.88424898        0.007875
      1522         -0.88425227        0.007875
      1523         -0.88425498        0.007875
      1524         -0.88426009        0.007875
      1525         -0.88426340        0.007875
      1526         -0.88426586        0.007875
      1527         -0.88426636        0.007875
      1528         -0.88426915        0.007875
      1529         -0.88427148        0.007875
      1530         -0.88427259        0.007875
      1531         -0.88427674        0.007875
      1532         -0.88428066        0.007875
      1533         -0.88428375        0.007875
      1534         -0.88428609        0.007875
      1535         -0.88428766        0.007875
      1536         -0.88428962        0.007875
      1537         -0.88429555        0.007875
      1538         -0.88429605        0.007875
      1539         -0.88429735        0.007875
      1540         -0.88429877        0.007875
      1541         -0.88429946        0.007875
      1542         -0.88430824        0.007875
      1543         -0.88430956        0.007875
      1544         -0.88431022        0.007875
      1545         -0.88431140        0.007875
      1546         -0.88431306        0.007875
      1547         -0.88431317        0.007875
      1548         -0.88431410        0.007875
      1549         -0.88431607        0.007875
      1550         -0.88432083        0.007875
      1551         -0.88432393        0.007875
[...]
  10       0.00000     0.00000     0.00000     0.00000

                  WFN1 Final alpha Correlation Function Analysis
                  ----------------------------------------------


 global array: Ca[1:10,1:10],  handle: -981 

                     1                       2                       3                       4                       5                       6  
       ----------------------- ----------------------- ----------------------- ----------------------- ----------------------- -----------------------
   1       0.85137,   -0.11311     0.49725,   -0.09124    -0.04436,    0.00739    -0.00408,    0.00719    -0.00062,    0.00865     0.00912,    0.02717
   2      -0.27004,   -0.42005     0.49541,    0.69507     0.06811,    0.04051     0.02656,   -0.01420    -0.03069,    0.00097     0.01509,   -0.00781
   3      -0.06320,    0.00533     0.04048,    0.00781    -0.83356,    0.14746     0.50081,   -0.07832     0.02952,   -0.04108     0.02079,    0.07351
   4      -0.05259,   -0.00437     0.03287,    0.01996    -0.46736,    0.19779    -0.79107,    0.31195     0.07055,    0.03141     0.03201,    0.01182
   5       0.02028,    0.02528    -0.03242,    0.00912     0.00546,    0.00034    -0.02688,   -0.09011     0.30452,   -0.21967     0.34341,   -0.22090
   6       0.00954,   -0.03071     0.04014,    0.01570    -0.03710,   -0.05574     0.03561,   -0.00334     0.24759,   -0.31960     0.20418,   -0.30280
   7      -0.02838,   -0.01636     0.00603,    0.02074     0.06421,    0.03256     0.00921,    0.01143     0.21147,    0.32937     0.26087,    0.39361
   8      -0.02847,    0.01415    -0.02872,   -0.05567     0.01206,   -0.06027    -0.01133,    0.03857    -0.12466,   -0.46500     0.14556,    0.32690
   9      -0.02427,   -0.02107     0.04281,    0.03788     0.01339,   -0.00182    -0.05560,    0.05175    -0.31063,   -0.24166     0.34905,    0.23131
  10      -0.01572,    0.02749     0.04509,   -0.00111     0.06237,    0.00641    -0.00004,   -0.03548     0.07163,   -0.37556    -0.17195,    0.36858

                     7                       8                       9                      10  
       ----------------------- ----------------------- ----------------------- -----------------------
   1       0.02201,    0.02650    -0.00615,   -0.01478     0.02454,   -0.00382     0.04042,    0.01070
   2       0.01929,    0.03915     0.06906,    0.00853    -0.03230,   -0.05748     0.04749,    0.01764
   3      -0.06539,   -0.03141    -0.01698,   -0.04293     0.01288,   -0.05875    -0.02470,   -0.02747
   4       0.03037,    0.00690    -0.00042,    0.06973    -0.00463,   -0.02439     0.02881,    0.02616
   5       0.37011,   -0.33717     0.49086,   -0.33388     0.22935,   -0.15570     0.02885,   -0.02171
   6       0.05556,   -0.11530    -0.17209,    0.25205    -0.35297,    0.46917    -0.27881,    0.40319
   7      -0.25164,   -0.38818    -0.23187,   -0.23637     0.14357,    0.18340     0.29407,    0.39054
   8       0.12522,    0.48568    -0.03384,   -0.26295    -0.11420,   -0.24702     0.16586,    0.45435
   9      -0.01841,    0.03305    -0.20261,   -0.15311     0.45059,    0.33828    -0.44035,   -0.28673
  10       0.22964,   -0.45154    -0.24794,    0.48628     0.12118,   -0.32984     0.01503,   -0.04374

                   WFN1 Final beta Correlation Function Analysis
                   ---------------------------------------------


 global array: Cb[1:10,1:10],  handle: -980 

                     1                       2                       3                       4                       5                       6  
       ----------------------- ----------------------- ----------------------- ----------------------- ----------------------- -----------------------
   1       0.85137,   -0.11311     0.49725,   -0.09124    -0.04436,    0.00739    -0.00408,    0.00719    -0.00062,    0.00865     0.00912,    0.02717
   2      -0.27004,   -0.42005     0.49541,    0.69507     0.06811,    0.04051     0.02656,   -0.01420    -0.03069,    0.00097     0.01509,   -0.00781
   3      -0.06320,    0.00533     0.04048,    0.00781    -0.83356,    0.14746     0.50081,   -0.07832     0.02952,   -0.04108     0.02079,    0.07351
   4      -0.05259,   -0.00437     0.03287,    0.01996    -0.46736,    0.19779    -0.79107,    0.31195     0.07055,    0.03141     0.03201,    0.01182
   5       0.02028,    0.02528    -0.03242,    0.00912     0.00546,    0.00034    -0.02688,   -0.09011     0.30452,   -0.21967     0.34341,   -0.22090
   6       0.00954,   -0.03071     0.04014,    0.01570    -0.03710,   -0.05574     0.03561,   -0.00334     0.24759,   -0.31960     0.20418,   -0.30280
   7      -0.02838,   -0.01636     0.00603,    0.02074     0.06421,    0.03256     0.00921,    0.01143     0.21147,    0.32937     0.26087,    0.39361
   8      -0.02847,    0.01415    -0.02872,   -0.05567     0.01206,   -0.06027    -0.01133,    0.03857    -0.12466,   -0.46500     0.14556,    0.32690
   9      -0.02427,   -0.02107     0.04281,    0.03788     0.01339,   -0.00182    -0.05560,    0.05175    -0.31063,   -0.24166     0.34905,    0.23131
  10      -0.01572,    0.02749     0.04509,   -0.00111     0.06237,    0.00641    -0.00004,   -0.03548     0.07163,   -0.37556    -0.17195,    0.36858

                     7                       8                       9                      10  
       ----------------------- ----------------------- ----------------------- -----------------------
   1       0.02201,    0.02650    -0.00615,   -0.01478     0.02454,   -0.00382     0.04042,    0.01070
   2       0.01929,    0.03915     0.06906,    0.00853    -0.03230,   -0.05748     0.04749,    0.01764
   3      -0.06539,   -0.03141    -0.01698,   -0.04293     0.01288,   -0.05875    -0.02470,   -0.02747
   4       0.03037,    0.00690    -0.00042,    0.06973    -0.00463,   -0.02439     0.02881,    0.02616
   5       0.37011,   -0.33717     0.49086,   -0.33388     0.22935,   -0.15570     0.02885,   -0.02171
   6       0.05556,   -0.11530    -0.17209,    0.25205    -0.35297,    0.46917    -0.27881,    0.40319
   7      -0.25164,   -0.38818    -0.23187,   -0.23637     0.14357,    0.18340     0.29407,    0.39054
   8       0.12522,    0.48568    -0.03384,   -0.26295    -0.11420,   -0.24702     0.16586,    0.45435
   9      -0.01841,    0.03305    -0.20261,   -0.15311     0.45059,    0.33828    -0.44035,   -0.28673
  10       0.22964,   -0.45154    -0.24794,    0.48628     0.12118,   -0.32984     0.01503,   -0.04374

                     WFN1 Final Alpha Natural Orbital Analysis
                     -----------------------------------------

 Vector    1  Occ=7.376261D-01  E= 0.000000D+00
              MO Center=  7.0D-07, -8.2D-07, -3.4D-05, r^2= 2.5D+00
   Bfn.  Coefficient  Atom+Function         Bfn.  Coefficient  Atom+Function  
  ----- ------------  ---------------      ----- ------------  ---------------
     2     -0.509777  1 H  s                  7     -0.509745  2 H  s          
     1     -0.222920  1 H  s                  6     -0.222936  2 H  s          

 Vector    2  Occ=2.493623D-01  E= 0.000000D+00
              MO Center= -1.6D-05,  1.2D-05,  3.3D-05, r^2= 2.7D+00
   Bfn.  Coefficient  Atom+Function         Bfn.  Coefficient  Atom+Function  
  ----- ------------  ---------------      ----- ------------  ---------------
     2     -0.527243  1 H  s                  7      0.527273  2 H  s          
     1     -0.275159  1 H  s                  6      0.275140  2 H  s          

 Vector    3  Occ=4.022287D-03  E= 0.000000D+00
              MO Center= -3.0D-04, -3.3D-06,  5.8D-04, r^2= 2.6D+00
   Bfn.  Coefficient  Atom+Function         Bfn.  Coefficient  Atom+Function  
  ----- ------------  ---------------      ----- ------------  ---------------
     1      0.893805  1 H  s                  6      0.893691  2 H  s          
     2     -0.698464  1 H  s                  7     -0.698396  2 H  s          

 Vector    4  Occ=2.785258D-03  E= 0.000000D+00
              MO Center= -2.0D-04, -1.9D-04,  9.0D-05, r^2= 3.2D+00
   Bfn.  Coefficient  Atom+Function         Bfn.  Coefficient  Atom+Function  
  ----- ------------  ---------------      ----- ------------  ---------------
     1     -0.922723  1 H  s                  6      0.922865  2 H  s          
     2      0.890263  1 H  s                  7     -0.890313  2 H  s          
     5     -0.036234  1 H  pz                10     -0.032716  2 H  pz         

 Vector    5  Occ=1.050109D-03  E= 0.000000D+00
              MO Center=  1.9D-04,  6.8D-05,  7.4D-05, r^2= 2.1D+00
   Bfn.  Coefficient  Atom+Function         Bfn.  Coefficient  Atom+Function  
  ----- ------------  ---------------      ----- ------------  ---------------
     8     -0.533320  2 H  px                 4     -0.528323  1 H  py         
     3     -0.469028  1 H  px                 9     -0.463574  2 H  py         
     5      0.028765  1 H  pz                10      0.025678  2 H  pz         

 Vector    6  Occ=1.034123D-03  E= 0.000000D+00
              MO Center=  1.7D-04, -1.7D-04,  8.9D-05, r^2= 2.1D+00
   Bfn.  Coefficient  Atom+Function         Bfn.  Coefficient  Atom+Function  
  ----- ------------  ---------------      ----- ------------  ---------------
     4      0.506372  1 H  py                 8     -0.500492  2 H  px         
     9      0.499456  2 H  py                 3     -0.492907  1 H  px         

 Vector    7  Occ=1.073164D-03  E= 0.000000D+00
              MO Center=  9.1D-06,  7.4D-05, -9.0D-05, r^2= 2.1D+00
   Bfn.  Coefficient  Atom+Function         Bfn.  Coefficient  Atom+Function  
  ----- ------------  ---------------      ----- ------------  ---------------
     9     -0.533904  2 H  py                 3     -0.527360  1 H  px         
     4      0.469980  1 H  py                 8      0.463407  2 H  px         
     5      0.032170  1 H  pz         

 Vector    8  Occ=1.010669D-03  E= 0.000000D+00
              MO Center=  2.0D-04,  2.1D-04, -9.6D-05, r^2= 2.1D+00
   Bfn.  Coefficient  Atom+Function         Bfn.  Coefficient  Atom+Function  
  ----- ------------  ---------------      ----- ------------  ---------------
     3     -0.505369  1 H  px                 8      0.498971  2 H  px         
     9      0.500398  2 H  py                 4     -0.493482  1 H  py         
     5      0.033357  1 H  pz         

 Vector    9  Occ=1.032916D-03  E= 0.000000D+00
              MO Center= -3.4D-05,  6.0D-06, -6.9D-04, r^2= 2.1D+00
   Bfn.  Coefficient  Atom+Function         Bfn.  Coefficient  Atom+Function  
  ----- ------------  ---------------      ----- ------------  ---------------
     5      0.705905  1 H  pz                10     -0.706184  2 H  pz         
     7     -0.049765  2 H  s                  2     -0.045373  1 H  s          
     3      0.043551  1 H  px                 6      0.043122  2 H  s          
     1      0.038547  1 H  s                  8     -0.028265  2 H  px         

 Vector   10  Occ=1.003142D-03  E= 0.000000D+00
              MO Center= -2.0D-05, -4.5D-06,  5.2D-05, r^2= 2.1D+00
   Bfn.  Coefficient  Atom+Function         Bfn.  Coefficient  Atom+Function  
  ----- ------------  ---------------      ----- ------------  ---------------
     5      0.705190  1 H  pz                10      0.706487  2 H  pz         
     2      0.079402  1 H  s                  7     -0.076331  2 H  s          
     1     -0.068109  1 H  s                  6      0.064226  2 H  s          
     3      0.040176  1 H  px         


                     WFN1 Final Beta Natural Orbital Analysis
                     ----------------------------------------

 Vector    1  Occ=7.376261D-01  E= 0.000000D+00
              MO Center=  7.0D-07, -8.2D-07, -3.4D-05, r^2= 2.5D+00
   Bfn.  Coefficient  Atom+Function         Bfn.  Coefficient  Atom+Function  
  ----- ------------  ---------------      ----- ------------  ---------------
     2     -0.509777  1 H  s                  7     -0.509745  2 H  s          
     1     -0.222920  1 H  s                  6     -0.222936  2 H  s          

 Vector    2  Occ=2.493623D-01  E= 0.000000D+00
              MO Center= -1.6D-05,  1.2D-05,  3.3D-05, r^2= 2.7D+00
   Bfn.  Coefficient  Atom+Function         Bfn.  Coefficient  Atom+Function  
  ----- ------------  ---------------      ----- ------------  ---------------
     2     -0.527243  1 H  s                  7      0.527273  2 H  s          
     1     -0.275159  1 H  s                  6      0.275140  2 H  s          

 Vector    3  Occ=4.022287D-03  E= 0.000000D+00
              MO Center= -3.0D-04, -3.3D-06,  5.8D-04, r^2= 2.6D+00
   Bfn.  Coefficient  Atom+Function         Bfn.  Coefficient  Atom+Function  
  ----- ------------  ---------------      ----- ------------  ---------------
     1      0.893805  1 H  s                  6      0.893691  2 H  s          
     2     -0.698464  1 H  s                  7     -0.698396  2 H  s          

 Vector    4  Occ=2.785258D-03  E= 0.000000D+00
              MO Center= -2.0D-04, -1.9D-04,  9.0D-05, r^2= 3.2D+00
   Bfn.  Coefficient  Atom+Function         Bfn.  Coefficient  Atom+Function  
  ----- ------------  ---------------      ----- ------------  ---------------
     1     -0.922723  1 H  s                  6      0.922865  2 H  s          
     2      0.890263  1 H  s                  7     -0.890313  2 H  s          
     5     -0.036234  1 H  pz                10     -0.032716  2 H  pz         

 Vector    5  Occ=1.050109D-03  E= 0.000000D+00
              MO Center=  1.9D-04,  6.8D-05,  7.4D-05, r^2= 2.1D+00
   Bfn.  Coefficient  Atom+Function         Bfn.  Coefficient  Atom+Function  
  ----- ------------  ---------------      ----- ------------  ---------------
     8     -0.533320  2 H  px                 4     -0.528323  1 H  py         
     3     -0.469028  1 H  px                 9     -0.463574  2 H  py         
     5      0.028765  1 H  pz                10      0.025678  2 H  pz         

 Vector    6  Occ=1.034123D-03  E= 0.000000D+00
              MO Center=  1.7D-04, -1.7D-04,  8.9D-05, r^2= 2.1D+00
   Bfn.  Coefficient  Atom+Function         Bfn.  Coefficient  Atom+Function  
  ----- ------------  ---------------      ----- ------------  ---------------
     4      0.506372  1 H  py                 8     -0.500492  2 H  px         
     9      0.499456  2 H  py                 3     -0.492907  1 H  px         

 Vector    7  Occ=1.073164D-03  E= 0.000000D+00
              MO Center=  9.1D-06,  7.4D-05, -9.0D-05, r^2= 2.1D+00
   Bfn.  Coefficient  Atom+Function         Bfn.  Coefficient  Atom+Function  
  ----- ------------  ---------------      ----- ------------  ---------------
     9     -0.533904  2 H  py                 3     -0.527360  1 H  px         
     4      0.469980  1 H  py                 8      0.463407  2 H  px         
     5      0.032170  1 H  pz         

 Vector    8  Occ=1.010669D-03  E= 0.000000D+00
              MO Center=  2.0D-04,  2.1D-04, -9.6D-05, r^2= 2.1D+00
   Bfn.  Coefficient  Atom+Function         Bfn.  Coefficient  Atom+Function  
  ----- ------------  ---------------      ----- ------------  ---------------
     3     -0.505369  1 H  px                 8      0.498971  2 H  px         
     9      0.500398  2 H  py                 4     -0.493482  1 H  py         
     5      0.033357  1 H  pz         

 Vector    9  Occ=1.032916D-03  E= 0.000000D+00
              MO Center= -3.4D-05,  6.0D-06, -6.9D-04, r^2= 2.1D+00
   Bfn.  Coefficient  Atom+Function         Bfn.  Coefficient  Atom+Function  
  ----- ------------  ---------------      ----- ------------  ---------------
     5      0.705905  1 H  pz                10     -0.706184  2 H  pz         
     7     -0.049765  2 H  s                  2     -0.045373  1 H  s          
     3      0.043551  1 H  px                 6      0.043122  2 H  s          
     1      0.038547  1 H  s                  8     -0.028265  2 H  px         

 Vector   10  Occ=1.003142D-03  E= 0.000000D+00
              MO Center= -2.0D-05, -4.5D-06,  5.2D-05, r^2= 2.1D+00
   Bfn.  Coefficient  Atom+Function         Bfn.  Coefficient  Atom+Function  
  ----- ------------  ---------------      ----- ------------  ---------------
     5      0.705190  1 H  pz                10      0.706487  2 H  pz         
     2      0.079402  1 H  s                  7     -0.076331  2 H  s          
     1     -0.068109  1 H  s                  6      0.064226  2 H  s          
     3      0.040176  1 H  px         


 Task  times  cpu:     3103.3s     wall:     3693.1s
 Summary of allocated global arrays
-----------------------------------
  No active global arrays



                         GA Statistics for process    0
                         ------------------------------

       create   destroy   get      put      acc     scatter   gather  read&inc
calls:   44       44     1.08e+09 4.62e+05 6.14e+05    0        0       11     
number of processes/call 1.00e+00 1.00e+00 1.00e+00 0.00e+00 0.00e+00
bytes total:             8.62e+11 4.91e+08 6.14e+08 0.00e+00 0.00e+00 8.80e+01
bytes remote:            0.00e+00 0.00e+00 0.00e+00 0.00e+00 0.00e+00 0.00e+00
Max memory consumed for GA by this process: 268000 bytes
MA_summarize_allocated_blocks: starting scan ...
MA_summarize_allocated_blocks: scan completed: 0 heap blocks, 0 stack blocks
MA usage statistics:

	allocation statistics:
					      heap	     stack
					      ----	     -----
	current number of blocks	         0	         0
	maximum number of blocks	        19	        17
	current total bytes		         0	         0
	maximum total bytes		   3205432	  22508664
	maximum total K-bytes		      3206	     22509
	maximum total M-bytes		         4	        23


                                NWChem Input Module
                                -------------------





                                     CITATION
                                     --------
                Please cite the following reference when publishing
                           results obtained with NWChem:

                 M. Valiev, E.J. Bylaska, N. Govind, K. Kowalski,
              T.P. Straatsma, H.J.J. van Dam, D. Wang, J. Nieplocha,
                        E. Apra, T.L. Windus, W.A. de Jong
                 "NWChem: a comprehensive and scalable open-source
                  solution for large scale molecular simulations"
                      Comput. Phys. Commun. 181, 1477 (2010)
                           doi:10.1016/j.cpc.2010.04.018

                                      AUTHORS
                                      -------
          E. Apra, E. J. Bylaska, W. A. de Jong, N. Govind, K. Kowalski,
       T. P. Straatsma, M. Valiev, H. J. J. van Dam, D. Wang, T. L. Windus,
        J. Hammond, J. Autschbach, K. Bhaskaran-Nair, J. Brabec, K. Lopata,
    S. A. Fischer, S. Krishnamoorthy, M. Jacquelin, W. Ma, M. Klemm, O. Villa,
      Y. Chen, V. Anisimov, F. Aquino, S. Hirata, M. T. Hackler, V. Konjkov,
      T. Risthaus, M. Malagoli, A. Marenich, A. Otero-de-la-Roza, J. Mullin,
        P. Nichols, R. Peverati, J. Pittner, Y. Zhao, P.-D. Fan, A. Fonari,
       M. Williamson, R. J. Harrison, J. R. Rehr, M. Dupuis, D. Silverstein,
    D. M. A. Smith, J. Nieplocha, V. Tipparaju, M. Krishnan, B. E. Van Kuiken,
        A. Vazquez-Mayagoitia, L. Jensen, M. Swart, Q. Wu, T. Van Voorhis,
     A. A. Auer, M. Nooijen, L. D. Crosby, E. Brown, G. Cisneros, G. I. Fann,
   H. Fruchtl, J. Garza, K. Hirao, R. A. Kendall, J. A. Nichols, K. Tsemekhman,
    K. Wolinski, J. Anchell, D. E. Bernholdt, P. Borowski, T. Clark, D. Clerc,
   H. Dachsel, M. J. O. Deegan, K. Dyall, D. Elwood, E. Glendening, M. Gutowski,
   A. C. Hess, J. Jaffe, B. G. Johnson, J. Ju, R. Kobayashi, R. Kutteh, Z. Lin,
   R. Littlefield, X. Long, B. Meng, T. Nakajima, S. Niu, L. Pollack, M. Rosing,
   K. Glaesemann, G. Sandrone, M. Stave, H. Taylor, G. Thomas, J. H. van Lenthe,
                               A. T. Wong, Z. Zhang.

 Total times  cpu:     3103.3s     wall:     3693.2s
