 argument  1 = input-wf.nw



============================== echo of input deck ==============================
echo
start wfn1_dat
geometry units au noautoz
  H 0 0 -1.54434600000000000000
  H 0 0  1.54434600000000000000
  symmetry cs
end
basis
  H library 6-31g**
end
set wfn1:input_vectors "atomic"
set wfn1:solver "monte-carlo"
set wfn1:print_error F
set wfn1:t_initial 0.1
#set wfn1:corr_expr "wfn1_mx"
set wfn1:corr_expr "wfn1c"
set wfn1:t_bath 0.0
set wfn1:maxit  20000
task wfn1 energy
================================================================================


                                         
                                         


              Northwest Computational Chemistry Package (NWChem) 6.8
              ------------------------------------------------------


                    Environmental Molecular Sciences Laboratory
                       Pacific Northwest National Laboratory
                                Richland, WA 99352

                              Copyright (c) 1994-2015
                       Pacific Northwest National Laboratory
                            Battelle Memorial Institute

             NWChem is an open-source computational chemistry package
                        distributed under the terms of the
                      Educational Community License (ECL) 2.0
             A copy of the license is included with this distribution
                              in the LICENSE.TXT file

                                  ACKNOWLEDGMENT
                                  --------------

            This software and its documentation were developed at the
            EMSL at Pacific Northwest National Laboratory, a multiprogram
            national laboratory, operated for the U.S. Department of Energy
            by Battelle under Contract Number DE-AC05-76RL01830. Support
            for this work was provided by the Department of Energy Office
            of Biological and Environmental Research, Office of Basic
            Energy Sciences, and the Office of Advanced Scientific Computing.


           Job information
           ---------------

    hostname        = erato
    program         = ../../../bin/LINUX64/nwchem
    date            = Mon Mar  1 15:27:22 2021

    compiled        = Sun_Feb_28_18:02:42_2021
    source          = /home/hvandam/nwchem-1-wfn1
    nwchem branch   = Development
    nwchem revision = nwchem_on_git-124-gad72d19fff205e319ffbbf2bca37a04ded6ad57b
    ga revision     = nwchem_on_git-124-gad72d19
    use scalapack   = F
    input           = input-wf.nw
    prefix          = wfn1_dat.
    data base       = ./wfn1_dat.db
    status          = startup
    nproc           =        1
    time left       =     -1s



           Memory information
           ------------------

    heap     =   13107198 doubles =    100.0 Mbytes
    stack    =   13107195 doubles =    100.0 Mbytes
    global   =   26214400 doubles =    200.0 Mbytes (distinct from heap & stack)
    total    =   52428793 doubles =    400.0 Mbytes
    verify   = yes
    hardfail = no 


           Directory information
           ---------------------

  0 permanent = .
  0 scratch   = .




                                NWChem Input Module
                                -------------------


 Turning off AUTOSYM since
 SYMMETRY directive was detected!



                             Geometry "geometry" -> ""
                             -------------------------

 Output coordinates in a.u. (scale by  1.000000000 to convert to a.u.)

  No.       Tag          Charge          X              Y              Z
 ---- ---------------- ---------- -------------- -------------- --------------
    1 H                    1.0000     0.00000000     0.00000000    -1.54434600
    2 H                    1.0000     0.00000000     0.00000000     1.54434600

      Atomic Mass 
      ----------- 

      H                  1.007825


 Effective nuclear repulsion energy (a.u.)       0.3237616441

            Nuclear Dipole moment (a.u.) 
            ----------------------------
        X                 Y               Z
 ---------------- ---------------- ----------------
     0.0000000000     0.0000000000     0.0000000000

      Symmetry information
      --------------------

 Group name             Cs        
 Group number              2
 Group order               2
 No. of unique centers     1

      Symmetry unique atoms

     1


            XYZ format geometry
            -------------------
     2
 geometry
 H                     0.00000000     0.00000000    -0.81723277
 H                     0.00000000     0.00000000     0.81723277

                      Basis "ao basis" -> "" (cartesian)
                      -----
  H (Hydrogen)
  ------------
            Exponent  Coefficients 
       -------------- ---------------------------------------------------------
  1 S  1.87311370E+01  0.033495
  1 S  2.82539370E+00  0.234727
  1 S  6.40121700E-01  0.813757

  2 S  1.61277800E-01  1.000000

  3 P  1.10000000E+00  1.000000



 Summary of "ao basis" -> "" (cartesian)
 ------------------------------------------------------------------------------
       Tag                 Description            Shells   Functions and Types
 ---------------- ------------------------------  ------  ---------------------
 H                          6-31g**                  3        5   2s1p



                                NWChem WFN1 Module
                                ------------------



          No. of electrons :     2
           Alpha electrons :     1
            Beta electrons :     1
          Charge           :     0
          Spin multiplicity:     1

 HvD: wfn1_inpdft
 HvD: nquad_task =                     1
 HvD: iangquad   =                     0
 HvD: gridtype   = user      
 HvD: leb        =  T
 HvD: radgrid    = murakn    
 HvD: trunc_neigh=  T
 HvD: lssw       =  T
 HvD: whichssw   = erf1    
 HvD: mxnrad     =                     0
 HvD: mxnang     =                     0
 HVD: wfn1: movecs_in  = atomic                                                                                                                                                                                                                                                          
 HVD: wfn1: movecs_out = ./wfn1_dat.movecs                                                                                                                                                                                                                                               

      Superposition of Atomic Density Guess
      -------------------------------------

 Sum of atomic energies:          -0.99646508

      Non-variational initial energy
      ------------------------------

 Total energy =      -0.713918
 1-e energy   =      -1.640210
 2-e energy   =       0.602531
 HOMO         =      -0.315041
 LUMO         =      -0.052691

 iteration              energy           error
 ---------              ------           -----
         0         -0.96675716        0.200000
         1         -0.96855478        0.200000
         2         -0.96978385        0.200000
         3         -0.97061152        0.200000
         4         -0.97149365        0.200000
         5         -0.97161201        0.200000
         6         -0.97242273        0.200000
         7         -0.97263664        0.200000
         8         -0.97348158        0.200000
         9         -0.97378878        0.185175
        10         -0.97399882        0.171449
        11         -0.97400135        0.171449
        12         -0.97478791        0.171449
        13         -0.97496454        0.171449
        14         -0.97500890        0.171449
        15         -0.97527248        0.171449
        16         -0.97540185        0.146973
        17         -0.97553231        0.146973
        18         -0.97571532        0.146973
        19         -0.97600184        0.146973
        20         -0.97619599        0.146973
        21         -0.97652787        0.146973
        22         -0.97675095        0.146973
        23         -0.97684497        0.136079
        24         -0.97691973        0.136079
        25         -0.97712481        0.136079
        26         -0.97740825        0.136079
        27         -0.97741817        0.125992
        28         -0.97749935        0.125992
        29         -0.97792838        0.116653
        30         -0.97794533        0.108006
        31         -0.97810537        0.108006
        32         -0.97857084        0.108006
        33         -0.97868898        0.100000
        34         -0.97871331        0.100000
        35         -0.97890624        0.100000
        36         -0.97897157        0.100000
        37         -0.97905758        0.100000
        38         -0.97911922        0.100000
        39         -0.97913082        0.073487
        40         -0.97913276        0.009186
        41         -0.97916973        0.007875
        42         -0.97918444        0.007291
        43         -0.97918727        0.005787
        44         -0.97918839        0.005787
        45         -0.97918910        0.004593
        46         -0.97919130        0.003937
        47         -0.97920393        0.003645
        48         -0.97921389        0.003125
        49         -0.97921614        0.001823
        50         -0.97921656        0.001563
        51         -0.97921704        0.001563
        52         -0.97922254        0.000335
        53         -0.97922488        0.000310
        54         -0.97922671        0.000133
        55         -0.97922762        0.000084
        56         -0.97922787        0.000078
        57         -0.97922848        0.000053
        58         -0.97922863        0.000042
        59         -0.97922973        0.000028
        60         -0.97923091        0.000026
        61         -0.97923172        0.000017
        62         -0.97923214        0.000006
        63         -0.97923282        0.000004
        64         -0.97923305        0.000004
        65         -0.97923317        0.000001
        66         -0.97923319        0.000001

 Reached Convergence

 WFN1                     :
 --------------------------
 Total WFN1 energy  =          -0.9792331907
 1-Electron energy  =          -1.7386871637
 2-Electron energy  =           0.4612630234
 Correlation energy =          -0.0255706945
 DFT XC energy      =           0.0000000000
 Entropy energy     =           0.0000000000
 Nuclear energy     =           0.3237616441

 conventional Hartree-Fock:
 --------------------------
 Total SCF energy  =          -0.9566644913
 2-Electron energy =           0.4838317229

                WFN1 Final Natural orbital energies and occupations
                ---------------------------------------------------

              Alpha       Beta            Alpha       Beta  
            --------    --------        --------    --------
       1      0.0000      0.0000          0.9596      0.9596
       2      0.0000      0.0000          0.0376      0.0376
       3      0.0000      0.0000          0.0009      0.0009
       4      0.0000      0.0000          0.0010      0.0010
       5      0.0000      0.0000          0.0003      0.0003
       6      0.0000      0.0000          0.0001      0.0001
       7      0.0000      0.0000          0.0000      0.0000
       8      0.0000      0.0000          0.0000      0.0000
       9      0.0000      0.0000          0.0000      0.0000
      10      0.0000      0.0000          0.0003      0.0003

             WFN1 Final Correlation function energies and occupations
             --------------------------------------------------------

              Alpha       Beta            Alpha       Beta  
            --------    --------        --------    --------
       1      0.0000      0.0000          1.0000      1.0000
       2      0.0000      0.0000          0.0000      0.0000
       3      0.0000      0.0000          0.0000      0.0000
       4      0.0000      0.0000          0.0000      0.0000
       5      0.0000      0.0000          0.0000      0.0000
       6      0.0000      0.0000          0.0000      0.0000
       7      0.0000      0.0000          0.0000      0.0000
       8      0.0000      0.0000          0.0000      0.0000
       9      0.0000      0.0000          0.0000      0.0000
      10      0.0000      0.0000          0.0000      0.0000

                WFN1 Final alpha-alpha 2-matrix occupation numbers
                --------------------------------------------------


 global array: g_momo1[1:10,1:10],  handle: -990 

            1           2           3           4           5           6  
       ----------- ----------- ----------- ----------- ----------- -----------
   1       0.00000     0.00000     0.00000    -0.00000    -0.00000    -0.00000
   2       0.00000    -0.00000     0.00000    -0.00000    -0.00000     0.00000
   3      -0.00000     0.00000     0.00000     0.00000     0.00000    -0.00000
   4       0.00000     0.00000     0.00000     0.00000     0.00000    -0.00000
   5       0.00000     0.00000     0.00000     0.00000    -0.00000     0.00000
   6       0.00000     0.00000     0.00000    -0.00000     0.00000     0.00000
   7       0.00000     0.00000     0.00000    -0.00000     0.00000     0.00000
   8       0.00000     0.00000     0.00000     0.00000    -0.00000    -0.00000
   9       0.00000     0.00000     0.00000    -0.00000     0.00000     0.00000
  10       0.00000     0.00000     0.00000    -0.00000     0.00000     0.00000

            7           8           9          10  
       ----------- ----------- ----------- -----------
   1       0.00000     0.00000     0.00000     0.00000
   2       0.00000     0.00000    -0.00000     0.00000
   3      -0.00000     0.00000    -0.00000     0.00000
   4       0.00000     0.00000    -0.00000     0.00000
   5       0.00000     0.00000     0.00000     0.00000
   6       0.00000     0.00000     0.00000     0.00000
   7      -0.00000     0.00000     0.00000    -0.00000
   8       0.00000     0.00000     0.00000     0.00000
   9       0.00000     0.00000     0.00000     0.00000
  10      -0.00000     0.00000     0.00000    -0.00000

                 WFN1 Final beta-beta 2-matrix occupation numbers
                 ------------------------------------------------


 global array: g_momo2[1:10,1:10],  handle: -989 

            1           2           3           4           5           6  
       ----------- ----------- ----------- ----------- ----------- -----------
   1       0.00000     0.00000     0.00000    -0.00000    -0.00000    -0.00000
   2       0.00000    -0.00000     0.00000    -0.00000    -0.00000     0.00000
   3      -0.00000     0.00000     0.00000     0.00000     0.00000    -0.00000
   4       0.00000     0.00000     0.00000     0.00000     0.00000    -0.00000
   5       0.00000     0.00000     0.00000     0.00000    -0.00000     0.00000
   6       0.00000     0.00000     0.00000    -0.00000     0.00000     0.00000
   7       0.00000     0.00000     0.00000    -0.00000     0.00000     0.00000
   8       0.00000     0.00000     0.00000     0.00000    -0.00000    -0.00000
   9       0.00000     0.00000     0.00000    -0.00000     0.00000     0.00000
  10       0.00000     0.00000     0.00000    -0.00000     0.00000     0.00000

            7           8           9          10  
       ----------- ----------- ----------- -----------
   1       0.00000     0.00000     0.00000     0.00000
   2       0.00000     0.00000    -0.00000     0.00000
   3      -0.00000     0.00000    -0.00000     0.00000
   4       0.00000     0.00000    -0.00000     0.00000
   5       0.00000     0.00000     0.00000     0.00000
   6       0.00000     0.00000     0.00000     0.00000
   7      -0.00000     0.00000     0.00000    -0.00000
   8       0.00000     0.00000     0.00000     0.00000
   9       0.00000     0.00000     0.00000     0.00000
  10      -0.00000     0.00000     0.00000    -0.00000

                  WFN1 Final alpha Correlation Function Analysis
                  ----------------------------------------------


 global array: Ca[1:10,1:10],  handle: -981 

                     1                       2                       3                       4                       5                       6  
       ----------------------- ----------------------- ----------------------- ----------------------- ----------------------- -----------------------
   1       0.78297,   -0.58874    -0.15377,    0.11992     0.00260,   -0.00803     0.00197,   -0.03796     0.00813,   -0.00136    -0.00383,   -0.01946
   2      -0.01274,   -0.19347    -0.07420,   -0.97361     0.03177,    0.00651    -0.02246,   -0.03302     0.02323,    0.01995     0.00748,   -0.01243
   3       0.03071,   -0.00237    -0.00129,   -0.02110    -0.52533,    0.53110    -0.46081,    0.47061    -0.03900,    0.01174    -0.01213,   -0.03362
   4       0.00683,   -0.03158     0.00750,   -0.04346    -0.42816,   -0.49984     0.48998,    0.56488     0.01908,   -0.02923     0.02507,    0.02969
   5       0.01490,    0.00827     0.02332,   -0.01213    -0.01993,    0.04797    -0.01771,   -0.01497     0.53424,   -0.60428    -0.38816,    0.43989
   6       0.00632,   -0.00878    -0.03218,   -0.02211    -0.02579,   -0.02676    -0.02487,   -0.01666     0.04349,    0.34429     0.05988,    0.46604
   7      -0.00280,   -0.00576     0.03407,    0.03671    -0.00104,    0.04451     0.01420,    0.00009     0.23564,    0.19542     0.34408,    0.28380
   8       0.00000,   -0.00000     0.00876,    0.02860     0.01717,    0.00938    -0.00129,    0.01498     0.11888,   -0.21044     0.18181,   -0.27410
   9       0.00613,   -0.00340     0.00864,    0.01035    -0.01876,    0.02167     0.02565,   -0.01361    -0.19508,    0.17347    -0.24242,    0.24247
  10       0.00224,    0.01627     0.00801,    0.01730    -0.01111,   -0.01666    -0.01146,   -0.03355    -0.05704,    0.03983    -0.04375,    0.07112

                     7                       8                       9                      10  
       ----------------------- ----------------------- ----------------------- -----------------------
   1       0.00442,   -0.00644    -0.00245,   -0.00127    -0.01183,    0.00111    -0.01173,   -0.00213
   2       0.01345,    0.02083    -0.01822,   -0.02118     0.02630,   -0.05213    -0.01659,    0.01058
   3      -0.00320,   -0.00726    -0.01268,    0.02054    -0.03654,    0.01828    -0.03395,   -0.01823
   4      -0.01052,   -0.02434    -0.00880,    0.01979    -0.02427,   -0.00734    -0.00928,    0.00645
   5       0.00674,   -0.00904     0.00514,    0.02179    -0.01199,   -0.00226     0.00848,    0.01397
   6       0.06465,    0.40147     0.08881,    0.40148     0.09146,    0.55773     0.02484,   -0.01994
   7       0.32953,    0.30096    -0.34129,   -0.27084    -0.44241,   -0.33954     0.02537,    0.04434
   8      -0.28848,    0.48268    -0.31484,    0.49924     0.24263,   -0.32922    -0.00927,   -0.00073
   9       0.39887,   -0.36014    -0.39541,    0.32497     0.32046,   -0.29270     0.20088,   -0.18146
  10       0.12526,   -0.11502    -0.11854,    0.11993     0.08222,   -0.03429    -0.70856,    0.64695

                   WFN1 Final beta Correlation Function Analysis
                   ---------------------------------------------


 global array: Cb[1:10,1:10],  handle: -980 

                     1                       2                       3                       4                       5                       6  
       ----------------------- ----------------------- ----------------------- ----------------------- ----------------------- -----------------------
   1       0.78297,   -0.58874    -0.15377,    0.11992     0.00260,   -0.00803     0.00197,   -0.03796     0.00813,   -0.00136    -0.00383,   -0.01946
   2      -0.01274,   -0.19347    -0.07420,   -0.97361     0.03177,    0.00651    -0.02246,   -0.03302     0.02323,    0.01995     0.00748,   -0.01243
   3       0.03071,   -0.00237    -0.00129,   -0.02110    -0.52533,    0.53110    -0.46081,    0.47061    -0.03900,    0.01174    -0.01213,   -0.03362
   4       0.00683,   -0.03158     0.00750,   -0.04346    -0.42816,   -0.49984     0.48998,    0.56488     0.01908,   -0.02923     0.02507,    0.02969
   5       0.01490,    0.00827     0.02332,   -0.01213    -0.01993,    0.04797    -0.01771,   -0.01497     0.53424,   -0.60428    -0.38816,    0.43989
   6       0.00632,   -0.00878    -0.03218,   -0.02211    -0.02579,   -0.02676    -0.02487,   -0.01666     0.04349,    0.34429     0.05988,    0.46604
   7      -0.00280,   -0.00576     0.03407,    0.03671    -0.00104,    0.04451     0.01420,    0.00009     0.23564,    0.19542     0.34408,    0.28380
   8       0.00000,   -0.00000     0.00876,    0.02860     0.01717,    0.00938    -0.00129,    0.01498     0.11888,   -0.21044     0.18181,   -0.27410
   9       0.00613,   -0.00340     0.00864,    0.01035    -0.01876,    0.02167     0.02565,   -0.01361    -0.19508,    0.17347    -0.24242,    0.24247
  10       0.00224,    0.01627     0.00801,    0.01730    -0.01111,   -0.01666    -0.01146,   -0.03355    -0.05704,    0.03983    -0.04375,    0.07112

                     7                       8                       9                      10  
       ----------------------- ----------------------- ----------------------- -----------------------
   1       0.00442,   -0.00644    -0.00245,   -0.00127    -0.01183,    0.00111    -0.01173,   -0.00213
   2       0.01345,    0.02083    -0.01822,   -0.02118     0.02630,   -0.05213    -0.01659,    0.01058
   3      -0.00320,   -0.00726    -0.01268,    0.02054    -0.03654,    0.01828    -0.03395,   -0.01823
   4      -0.01052,   -0.02434    -0.00880,    0.01979    -0.02427,   -0.00734    -0.00928,    0.00645
   5       0.00674,   -0.00904     0.00514,    0.02179    -0.01199,   -0.00226     0.00848,    0.01397
   6       0.06465,    0.40147     0.08881,    0.40148     0.09146,    0.55773     0.02484,   -0.01994
   7       0.32953,    0.30096    -0.34129,   -0.27084    -0.44241,   -0.33954     0.02537,    0.04434
   8      -0.28848,    0.48268    -0.31484,    0.49924     0.24263,   -0.32922    -0.00927,   -0.00073
   9       0.39887,   -0.36014    -0.39541,    0.32497     0.32046,   -0.29270     0.20088,   -0.18146
  10       0.12526,   -0.11502    -0.11854,    0.11993     0.08222,   -0.03429    -0.70856,    0.64695

                     WFN1 Final Alpha Natural Orbital Analysis
                     -----------------------------------------

 Vector    1  Occ=9.596459D-01  E= 0.000000D+00
              MO Center= -2.1D-03, -2.1D-04, -1.7D-02, r^2= 1.4D+00
   Bfn.  Coefficient  Atom+Function         Bfn.  Coefficient  Atom+Function  
  ----- ------------  ---------------      ----- ------------  ---------------
     2      0.435155  1 H  s                  7      0.422817  2 H  s          
     1      0.238681  1 H  s                  6      0.234287  2 H  s          

 Vector    2  Occ=3.759454D-02  E= 0.000000D+00
              MO Center=  4.0D-03,  1.2D-02,  1.9D-02, r^2= 1.9D+00
   Bfn.  Coefficient  Atom+Function         Bfn.  Coefficient  Atom+Function  
  ----- ------------  ---------------      ----- ------------  ---------------
     7      0.708491  2 H  s                  2     -0.681760  1 H  s          
     1     -0.271097  1 H  s                  6      0.249912  2 H  s          
     9      0.026558  2 H  py         

 Vector    3  Occ=9.485523D-04  E= 0.000000D+00
              MO Center= -1.5D-03, -1.0D-03, -5.9D-02, r^2= 2.2D+00
   Bfn.  Coefficient  Atom+Function         Bfn.  Coefficient  Atom+Function  
  ----- ------------  ---------------      ----- ------------  ---------------
     2      1.087580  1 H  s                  7     -1.043358  2 H  s          
     1     -0.943457  1 H  s                  6      0.883231  2 H  s          

 Vector    4  Occ=1.043803D-03  E= 0.000000D+00
              MO Center=  8.9D-04,  3.2D-03,  5.8D-02, r^2= 1.7D+00
   Bfn.  Coefficient  Atom+Function         Bfn.  Coefficient  Atom+Function  
  ----- ------------  ---------------      ----- ------------  ---------------
     6      0.959500  2 H  s                  1      0.894734  1 H  s          
     7     -0.703966  2 H  s                  2     -0.653491  1 H  s          
     3      0.035124  1 H  px                 9      0.033038  2 H  py         

 Vector    5  Occ=2.902273D-04  E= 0.000000D+00
              MO Center=  5.4D-04,  8.8D-04,  2.7D-02, r^2= 1.0D+00
   Bfn.  Coefficient  Atom+Function         Bfn.  Coefficient  Atom+Function  
  ----- ------------  ---------------      ----- ------------  ---------------
    10      0.706275  2 H  pz                 5     -0.679965  1 H  pz         
     7      0.095931  2 H  s                  2      0.094042  1 H  s          
     6     -0.055668  2 H  s                  1     -0.045651  1 H  s          

 Vector    6  Occ=1.170772D-04  E= 0.000000D+00
              MO Center= -1.0D-03, -2.9D-03, -1.3D-02, r^2= 9.8D-01
   Bfn.  Coefficient  Atom+Function         Bfn.  Coefficient  Atom+Function  
  ----- ------------  ---------------      ----- ------------  ---------------
     4     -0.690273  1 H  py                 9     -0.673660  2 H  py         
     8     -0.185988  2 H  px                 3     -0.162724  1 H  px         
     5     -0.051004  1 H  pz                 6      0.028770  2 H  s          

 Vector    7  Occ=4.102767D-05  E= 0.000000D+00
              MO Center=  8.7D-04, -2.2D-04, -1.7D-02, r^2= 9.8D-01
   Bfn.  Coefficient  Atom+Function         Bfn.  Coefficient  Atom+Function  
  ----- ------------  ---------------      ----- ------------  ---------------
     3      0.691815  1 H  px                 8      0.673943  2 H  px         
     9     -0.180014  2 H  py                 4     -0.170089  1 H  py         
     2      0.029328  1 H  s          

 Vector    8  Occ=6.732627D-18  E= 0.000000D+00
              MO Center= -5.7D-03, -1.2D-02,  5.1D-03, r^2= 9.9D-01
   Bfn.  Coefficient  Atom+Function         Bfn.  Coefficient  Atom+Function  
  ----- ------------  ---------------      ----- ------------  ---------------
     4     -0.644254  1 H  py                 9      0.642499  2 H  py         
     8      0.303030  2 H  px                 3     -0.287878  1 H  px         
     2      0.041611  1 H  s                  5      0.034520  1 H  pz         
     7     -0.031444  2 H  s                 10      0.031333  2 H  pz         

 Vector    9  Occ=4.912782D-05  E= 0.000000D+00
              MO Center=  2.7D-03, -1.4D-03,  2.0D-02, r^2= 9.9D-01
   Bfn.  Coefficient  Atom+Function         Bfn.  Coefficient  Atom+Function  
  ----- ------------  ---------------      ----- ------------  ---------------
     8     -0.646022  2 H  px                 3      0.640856  1 H  px         
     9      0.309630  2 H  py                 4     -0.280928  1 H  py         
     6     -0.054278  2 H  s                  7      0.039411  2 H  s          
     1     -0.036841  1 H  s          

 Vector   10  Occ=2.697697D-04  E= 0.000000D+00
              MO Center=  1.3D-03,  2.4D-03, -2.3D-02, r^2= 1.0D+00
   Bfn.  Coefficient  Atom+Function         Bfn.  Coefficient  Atom+Function  
  ----- ------------  ---------------      ----- ------------  ---------------
     5      0.748232  1 H  pz                10      0.725239  2 H  pz         
     2      0.241708  1 H  s                  7     -0.240456  2 H  s          
     1     -0.066066  1 H  s                  6      0.066248  2 H  s          
     9     -0.053782  2 H  py                 8     -0.031223  2 H  px         


                     WFN1 Final Beta Natural Orbital Analysis
                     ----------------------------------------

 Vector    1  Occ=9.596459D-01  E= 0.000000D+00
              MO Center= -2.1D-03, -2.1D-04, -1.7D-02, r^2= 1.4D+00
   Bfn.  Coefficient  Atom+Function         Bfn.  Coefficient  Atom+Function  
  ----- ------------  ---------------      ----- ------------  ---------------
     2      0.435155  1 H  s                  7      0.422817  2 H  s          
     1      0.238681  1 H  s                  6      0.234287  2 H  s          

 Vector    2  Occ=3.759454D-02  E= 0.000000D+00
              MO Center=  4.0D-03,  1.2D-02,  1.9D-02, r^2= 1.9D+00
   Bfn.  Coefficient  Atom+Function         Bfn.  Coefficient  Atom+Function  
  ----- ------------  ---------------      ----- ------------  ---------------
     7      0.708491  2 H  s                  2     -0.681760  1 H  s          
     1     -0.271097  1 H  s                  6      0.249912  2 H  s          
     9      0.026558  2 H  py         

 Vector    3  Occ=9.485523D-04  E= 0.000000D+00
              MO Center= -1.5D-03, -1.0D-03, -5.9D-02, r^2= 2.2D+00
   Bfn.  Coefficient  Atom+Function         Bfn.  Coefficient  Atom+Function  
  ----- ------------  ---------------      ----- ------------  ---------------
     2      1.087580  1 H  s                  7     -1.043358  2 H  s          
     1     -0.943457  1 H  s                  6      0.883231  2 H  s          

 Vector    4  Occ=1.043803D-03  E= 0.000000D+00
              MO Center=  8.9D-04,  3.2D-03,  5.8D-02, r^2= 1.7D+00
   Bfn.  Coefficient  Atom+Function         Bfn.  Coefficient  Atom+Function  
  ----- ------------  ---------------      ----- ------------  ---------------
     6      0.959500  2 H  s                  1      0.894734  1 H  s          
     7     -0.703966  2 H  s                  2     -0.653491  1 H  s          
     3      0.035124  1 H  px                 9      0.033038  2 H  py         

 Vector    5  Occ=2.902273D-04  E= 0.000000D+00
              MO Center=  5.4D-04,  8.8D-04,  2.7D-02, r^2= 1.0D+00
   Bfn.  Coefficient  Atom+Function         Bfn.  Coefficient  Atom+Function  
  ----- ------------  ---------------      ----- ------------  ---------------
    10      0.706275  2 H  pz                 5     -0.679965  1 H  pz         
     7      0.095931  2 H  s                  2      0.094042  1 H  s          
     6     -0.055668  2 H  s                  1     -0.045651  1 H  s          

 Vector    6  Occ=1.170772D-04  E= 0.000000D+00
              MO Center= -1.0D-03, -2.9D-03, -1.3D-02, r^2= 9.8D-01
   Bfn.  Coefficient  Atom+Function         Bfn.  Coefficient  Atom+Function  
  ----- ------------  ---------------      ----- ------------  ---------------
     4     -0.690273  1 H  py                 9     -0.673660  2 H  py         
     8     -0.185988  2 H  px                 3     -0.162724  1 H  px         
     5     -0.051004  1 H  pz                 6      0.028770  2 H  s          

 Vector    7  Occ=4.102767D-05  E= 0.000000D+00
              MO Center=  8.7D-04, -2.2D-04, -1.7D-02, r^2= 9.8D-01
   Bfn.  Coefficient  Atom+Function         Bfn.  Coefficient  Atom+Function  
  ----- ------------  ---------------      ----- ------------  ---------------
     3      0.691815  1 H  px                 8      0.673943  2 H  px         
     9     -0.180014  2 H  py                 4     -0.170089  1 H  py         
     2      0.029328  1 H  s          

 Vector    8  Occ=6.732627D-18  E= 0.000000D+00
              MO Center= -5.7D-03, -1.2D-02,  5.1D-03, r^2= 9.9D-01
   Bfn.  Coefficient  Atom+Function         Bfn.  Coefficient  Atom+Function  
  ----- ------------  ---------------      ----- ------------  ---------------
     4     -0.644254  1 H  py                 9      0.642499  2 H  py         
     8      0.303030  2 H  px                 3     -0.287878  1 H  px         
     2      0.041611  1 H  s                  5      0.034520  1 H  pz         
     7     -0.031444  2 H  s                 10      0.031333  2 H  pz         

 Vector    9  Occ=4.912782D-05  E= 0.000000D+00
              MO Center=  2.7D-03, -1.4D-03,  2.0D-02, r^2= 9.9D-01
   Bfn.  Coefficient  Atom+Function         Bfn.  Coefficient  Atom+Function  
  ----- ------------  ---------------      ----- ------------  ---------------
     8     -0.646022  2 H  px                 3      0.640856  1 H  px         
     9      0.309630  2 H  py                 4     -0.280928  1 H  py         
     6     -0.054278  2 H  s                  7      0.039411  2 H  s          
     1     -0.036841  1 H  s          

 Vector   10  Occ=2.697697D-04  E= 0.000000D+00
              MO Center=  1.3D-03,  2.4D-03, -2.3D-02, r^2= 1.0D+00
   Bfn.  Coefficient  Atom+Function         Bfn.  Coefficient  Atom+Function  
  ----- ------------  ---------------      ----- ------------  ---------------
     5      0.748232  1 H  pz                10      0.725239  2 H  pz         
     2      0.241708  1 H  s                  7     -0.240456  2 H  s          
     1     -0.066066  1 H  s                  6      0.066248  2 H  s          
     9     -0.053782  2 H  py                 8     -0.031223  2 H  px         


 Task  times  cpu:      151.2s     wall:      176.4s
 Summary of allocated global arrays
-----------------------------------
  No active global arrays



                         GA Statistics for process    0
                         ------------------------------

       create   destroy   get      put      acc     scatter   gather  read&inc
calls:   44       44     5.46e+07 2.50e+04 3.13e+04    0        0       11     
number of processes/call 1.00e+00 1.00e+00 1.00e+00 0.00e+00 0.00e+00
bytes total:             4.37e+10 2.50e+07 3.11e+07 0.00e+00 0.00e+00 8.80e+01
bytes remote:            0.00e+00 0.00e+00 0.00e+00 0.00e+00 0.00e+00 0.00e+00
Max memory consumed for GA by this process: 268000 bytes
MA_summarize_allocated_blocks: starting scan ...
MA_summarize_allocated_blocks: scan completed: 0 heap blocks, 0 stack blocks
MA usage statistics:

	allocation statistics:
					      heap	     stack
					      ----	     -----
	current number of blocks	         0	         0
	maximum number of blocks	        19	        17
	current total bytes		         0	         0
	maximum total bytes		   3205432	  22508664
	maximum total K-bytes		      3206	     22509
	maximum total M-bytes		         4	        23


                                NWChem Input Module
                                -------------------





                                     CITATION
                                     --------
                Please cite the following reference when publishing
                           results obtained with NWChem:

                 M. Valiev, E.J. Bylaska, N. Govind, K. Kowalski,
              T.P. Straatsma, H.J.J. van Dam, D. Wang, J. Nieplocha,
                        E. Apra, T.L. Windus, W.A. de Jong
                 "NWChem: a comprehensive and scalable open-source
                  solution for large scale molecular simulations"
                      Comput. Phys. Commun. 181, 1477 (2010)
                           doi:10.1016/j.cpc.2010.04.018

                                      AUTHORS
                                      -------
          E. Apra, E. J. Bylaska, W. A. de Jong, N. Govind, K. Kowalski,
       T. P. Straatsma, M. Valiev, H. J. J. van Dam, D. Wang, T. L. Windus,
        J. Hammond, J. Autschbach, K. Bhaskaran-Nair, J. Brabec, K. Lopata,
    S. A. Fischer, S. Krishnamoorthy, M. Jacquelin, W. Ma, M. Klemm, O. Villa,
      Y. Chen, V. Anisimov, F. Aquino, S. Hirata, M. T. Hackler, V. Konjkov,
      T. Risthaus, M. Malagoli, A. Marenich, A. Otero-de-la-Roza, J. Mullin,
        P. Nichols, R. Peverati, J. Pittner, Y. Zhao, P.-D. Fan, A. Fonari,
       M. Williamson, R. J. Harrison, J. R. Rehr, M. Dupuis, D. Silverstein,
    D. M. A. Smith, J. Nieplocha, V. Tipparaju, M. Krishnan, B. E. Van Kuiken,
        A. Vazquez-Mayagoitia, L. Jensen, M. Swart, Q. Wu, T. Van Voorhis,
     A. A. Auer, M. Nooijen, L. D. Crosby, E. Brown, G. Cisneros, G. I. Fann,
   H. Fruchtl, J. Garza, K. Hirao, R. A. Kendall, J. A. Nichols, K. Tsemekhman,
    K. Wolinski, J. Anchell, D. E. Bernholdt, P. Borowski, T. Clark, D. Clerc,
   H. Dachsel, M. J. O. Deegan, K. Dyall, D. Elwood, E. Glendening, M. Gutowski,
   A. C. Hess, J. Jaffe, B. G. Johnson, J. Ju, R. Kobayashi, R. Kutteh, Z. Lin,
   R. Littlefield, X. Long, B. Meng, T. Nakajima, S. Niu, L. Pollack, M. Rosing,
   K. Glaesemann, G. Sandrone, M. Stave, H. Taylor, G. Thomas, J. H. van Lenthe,
                               A. T. Wong, Z. Zhang.

 Total times  cpu:      151.2s     wall:      176.4s
