 argument  1 = input-wf.nw



============================== echo of input deck ==============================
echo
start wfn1_dat
geometry units au noautoz
  H 0 0 -2.39434600000000000000
  H 0 0  2.39434600000000000000
  symmetry cs
end
basis
  H library 6-31g**
end
set wfn1:input_vectors "atomic"
set wfn1:solver "monte-carlo"
set wfn1:print_error F
set wfn1:t_initial 0.1
#set wfn1:corr_expr "wfn1_mx"
set wfn1:corr_expr "wfn1c"
set wfn1:t_bath 0.0
set wfn1:maxit  20000
task wfn1 energy
================================================================================


                                         
                                         


              Northwest Computational Chemistry Package (NWChem) 6.8
              ------------------------------------------------------


                    Environmental Molecular Sciences Laboratory
                       Pacific Northwest National Laboratory
                                Richland, WA 99352

                              Copyright (c) 1994-2015
                       Pacific Northwest National Laboratory
                            Battelle Memorial Institute

             NWChem is an open-source computational chemistry package
                        distributed under the terms of the
                      Educational Community License (ECL) 2.0
             A copy of the license is included with this distribution
                              in the LICENSE.TXT file

                                  ACKNOWLEDGMENT
                                  --------------

            This software and its documentation were developed at the
            EMSL at Pacific Northwest National Laboratory, a multiprogram
            national laboratory, operated for the U.S. Department of Energy
            by Battelle under Contract Number DE-AC05-76RL01830. Support
            for this work was provided by the Department of Energy Office
            of Biological and Environmental Research, Office of Basic
            Energy Sciences, and the Office of Advanced Scientific Computing.


           Job information
           ---------------

    hostname        = erato
    program         = ../../../bin/LINUX64/nwchem
    date            = Tue Mar  2 04:54:27 2021

    compiled        = Sun_Feb_28_18:02:42_2021
    source          = /home/hvandam/nwchem-1-wfn1
    nwchem branch   = Development
    nwchem revision = nwchem_on_git-124-gad72d19fff205e319ffbbf2bca37a04ded6ad57b
    ga revision     = nwchem_on_git-124-gad72d19
    use scalapack   = F
    input           = input-wf.nw
    prefix          = wfn1_dat.
    data base       = ./wfn1_dat.db
    status          = startup
    nproc           =        1
    time left       =     -1s



           Memory information
           ------------------

    heap     =   13107198 doubles =    100.0 Mbytes
    stack    =   13107195 doubles =    100.0 Mbytes
    global   =   26214400 doubles =    200.0 Mbytes (distinct from heap & stack)
    total    =   52428793 doubles =    400.0 Mbytes
    verify   = yes
    hardfail = no 


           Directory information
           ---------------------

  0 permanent = .
  0 scratch   = .




                                NWChem Input Module
                                -------------------


 Turning off AUTOSYM since
 SYMMETRY directive was detected!



                             Geometry "geometry" -> ""
                             -------------------------

 Output coordinates in a.u. (scale by  1.000000000 to convert to a.u.)

  No.       Tag          Charge          X              Y              Z
 ---- ---------------- ---------- -------------- -------------- --------------
    1 H                    1.0000     0.00000000     0.00000000    -2.39434600
    2 H                    1.0000     0.00000000     0.00000000     2.39434600

      Atomic Mass 
      ----------- 

      H                  1.007825


 Effective nuclear repulsion energy (a.u.)       0.2088252909

            Nuclear Dipole moment (a.u.) 
            ----------------------------
        X                 Y               Z
 ---------------- ---------------- ----------------
     0.0000000000     0.0000000000     0.0000000000

      Symmetry information
      --------------------

 Group name             Cs        
 Group number              2
 Group order               2
 No. of unique centers     1

      Symmetry unique atoms

     1


            XYZ format geometry
            -------------------
     2
 geometry
 H                     0.00000000     0.00000000    -1.26703343
 H                     0.00000000     0.00000000     1.26703343

                      Basis "ao basis" -> "" (cartesian)
                      -----
  H (Hydrogen)
  ------------
            Exponent  Coefficients 
       -------------- ---------------------------------------------------------
  1 S  1.87311370E+01  0.033495
  1 S  2.82539370E+00  0.234727
  1 S  6.40121700E-01  0.813757

  2 S  1.61277800E-01  1.000000

  3 P  1.10000000E+00  1.000000



 Summary of "ao basis" -> "" (cartesian)
 ------------------------------------------------------------------------------
       Tag                 Description            Shells   Functions and Types
 ---------------- ------------------------------  ------  ---------------------
 H                          6-31g**                  3        5   2s1p



                                NWChem WFN1 Module
                                ------------------



          No. of electrons :     2
           Alpha electrons :     1
            Beta electrons :     1
          Charge           :     0
          Spin multiplicity:     1

 HvD: wfn1_inpdft
 HvD: nquad_task =                     1
 HvD: iangquad   =                     0
 HvD: gridtype   = user      
 HvD: leb        =  T
 HvD: radgrid    = murakn    
 HvD: trunc_neigh=  T
 HvD: lssw       =  T
 HvD: whichssw   = erf1    
 HvD: mxnrad     =                     0
 HvD: mxnang     =                     0
 HVD: wfn1: movecs_in  = atomic                                                                                                                                                                                                                                                          
 HVD: wfn1: movecs_out = ./wfn1_dat.movecs                                                                                                                                                                                                                                               

      Superposition of Atomic Density Guess
      -------------------------------------

 Sum of atomic energies:          -0.99646508

      Non-variational initial energy
      ------------------------------

 Total energy =      -0.684242
 1-e energy   =      -1.414094
 2-e energy   =       0.521027
 HOMO         =      -0.227788
 LUMO         =      -0.151778

 iteration              energy           error
 ---------              ------           -----
         0         -0.85234498        0.200000
         1         -0.86110897        0.200000
         2         -0.86415451        0.200000
         3         -0.86450936        0.200000
         4         -0.86898397        0.200000
         5         -0.86980339        0.200000
         6         -0.87313925        0.200000
         7         -0.87397674        0.200000
         8         -0.87430830        0.200000
         9         -0.87444127        0.200000
        10         -0.87475642        0.200000
        11         -0.87493631        0.200000
        12         -0.87505497        0.200000
        13         -0.87542856        0.200000
        14         -0.87692951        0.200000
        15         -0.87825516        0.200000
        16         -0.87899372        0.200000
        17         -0.87952398        0.200000
        18         -0.87988227        0.200000
        19         -0.88014695        0.200000
        20         -0.88025904        0.200000
        21         -0.88076579        0.200000
        22         -0.88093698        0.200000
        23         -0.88139384        0.185175
        24         -0.88140147        0.171449
        25         -0.88157904        0.171449
        26         -0.88194833        0.171449
        27         -0.88222942        0.158740
        28         -0.88243969        0.158740
        29         -0.88256602        0.146973
        30         -0.88282191        0.146973
        31         -0.88307184        0.146973
        32         -0.88346507        0.136079
        33         -0.88363261        0.125992
        34         -0.88380422        0.125992
        35         -0.88380740        0.125992
        36         -0.88387923        0.125992
        37         -0.88412448        0.125992
        38         -0.88415726        0.116653
        39         -0.88419188        0.116653
        40         -0.88422148        0.116653
        41         -0.88434202        0.116653
        42         -0.88453817        0.108006
        43         -0.88478406        0.108006
        44         -0.88483193        0.108006
        45         -0.88486137        0.108006
        46         -0.88492329        0.108006
        47         -0.88496407        0.108006
        48         -0.88501434        0.108006
        49         -0.88511271        0.108006
        50         -0.88512722        0.108006
        51         -0.88525266        0.108006
        52         -0.88538335        0.100000
        53         -0.88559459        0.100000
        54         -0.88560769        0.092587
        55         -0.88567065        0.092587
        56         -0.88570349        0.092587
        57         -0.88575223        0.092587
        58         -0.88593037        0.085724
        59         -0.88603089        0.073487
        60         -0.88609514        0.073487
        61         -0.88613325        0.073487
        62         -0.88614461        0.068040
        63         -0.88614950        0.068040
        64         -0.88619858        0.068040
        65         -0.88621190        0.068040
        66         -0.88626483        0.068040
        67         -0.88647309        0.068040
        68         -0.88647553        0.058326
        69         -0.88656288        0.058326
        70         -0.88658757        0.058326
        71         -0.88660364        0.058326
        72         -0.88661539        0.058326
        73         -0.88664415        0.058326
        74         -0.88666907        0.058326
        75         -0.88667802        0.058326
        76         -0.88668444        0.058326
        77         -0.88669036        0.058326
        78         -0.88679176        0.058326
        79         -0.88687834        0.058326
        80         -0.88689008        0.058326
        81         -0.88690745        0.054003
        82         -0.88694298        0.054003
        83         -0.88696535        0.054003
        84         -0.88701818        0.054003
        85         -0.88710821        0.054003
        86         -0.88711277        0.050000
        87         -0.88712688        0.050000
        88         -0.88712813        0.050000
        89         -0.88721708        0.050000
        90         -0.88727156        0.046294
        91         -0.88729258        0.046294
        92         -0.88730132        0.042862
        93         -0.88730171        0.042862
        94         -0.88732605        0.039685
        95         -0.88733193        0.039685
        96         -0.88735862        0.039685
        97         -0.88736187        0.039685
        98         -0.88736311        0.039685
        99         -0.88736685        0.036743
       100         -0.88740943        0.036743
       101         -0.88742791        0.036743
       102         -0.88742854        0.036743
       103         -0.88743065        0.036743
       104         -0.88745608        0.036743
       105         -0.88745681        0.036743
       106         -0.88748908        0.036743
       107         -0.88753899        0.036743
       108         -0.88755601        0.036743
       109         -0.88757906        0.036743
       110         -0.88759846        0.034020
       111         -0.88760513        0.034020
       112         -0.88762172        0.034020
       113         -0.88764181        0.034020
       114         -0.88766824        0.034020
       115         -0.88769182        0.034020
       116         -0.88773241        0.034020
       117         -0.88774750        0.034020
       118         -0.88777691        0.034020
       119         -0.88777842        0.034020
       120         -0.88780070        0.034020
       121         -0.88780645        0.034020
       122         -0.88781922        0.034020
       123         -0.88783387        0.034020
       124         -0.88784406        0.031498
       125         -0.88785220        0.029163
       126         -0.88785790        0.029163
       127         -0.88785961        0.027001
       128         -0.88788401        0.027001
       129         -0.88789439        0.027001
       130         -0.88790936        0.027001
       131         -0.88793652        0.027001
       132         -0.88793917        0.025000
       133         -0.88796309        0.025000
       134         -0.88798776        0.025000
       135         -0.88799320        0.025000
       136         -0.88799786        0.023147
       137         -0.88802324        0.023147
       138         -0.88804457        0.023147
       139         -0.88805916        0.023147
       140         -0.88806575        0.023147
       141         -0.88807436        0.023147
       142         -0.88809015        0.023147
       143         -0.88809758        0.023147
       144         -0.88809996        0.023147
       145         -0.88810995        0.023147
       146         -0.88811920        0.023147
       147         -0.88813219        0.021431
       148         -0.88813852        0.021431
       149         -0.88813942        0.021431
       150         -0.88813981        0.021431
       151         -0.88814207        0.021431
       152         -0.88815413        0.021431
       153         -0.88816405        0.021431
       154         -0.88816957        0.021431
       155         -0.88820423        0.021431
       156         -0.88820535        0.021431
       157         -0.88821064        0.021431
       158         -0.88822095        0.021431
       159         -0.88823773        0.021431
       160         -0.88825053        0.021431
       161         -0.88825152        0.021431
       162         -0.88825904        0.021431
       163         -0.88827424        0.021431
       164         -0.88827545        0.019843
       165         -0.88827564        0.019843
       166         -0.88827985        0.019843
       167         -0.88830336        0.019843
       168         -0.88831995        0.019843
       169         -0.88832901        0.019843
       170         -0.88833425        0.019843
       171         -0.88833487        0.019843
       172         -0.88834114        0.019843
       173         -0.88834284        0.019843
       174         -0.88835625        0.019843
       175         -0.88836252        0.019843
       176         -0.88837200        0.019843
       177         -0.88837598        0.019843
       178         -0.88839118        0.019843
       179         -0.88839165        0.019843
       180         -0.88839609        0.019843
       181         -0.88840042        0.019843
       182         -0.88840466        0.019843
       183         -0.88841830        0.019843
       184         -0.88843393        0.019843
       185         -0.88844043        0.019843
       186         -0.88845204        0.019843
       187         -0.88845657        0.019843
       188         -0.88847083        0.019843
       189         -0.88848926        0.019843
       190         -0.88849050        0.019843
       191         -0.88850209        0.019843
       192         -0.88851734        0.019843
       193         -0.88851738        0.019843
       194         -0.88852137        0.019843
       195         -0.88854538        0.019843
       196         -0.88854631        0.019843
       197         -0.88854962        0.019843
       198         -0.88855766        0.019843
       199         -0.88856528        0.019843
       200         -0.88857250        0.019843
       201         -0.88857971        0.019843
       202         -0.88858746        0.019843
       203         -0.88860948        0.019843
       204         -0.88861334        0.018372
       205         -0.88862111        0.017010
       206         -0.88862114        0.017010
       207         -0.88862502        0.017010
       208         -0.88862567        0.017010
       209         -0.88863267        0.017010
       210         -0.88864259        0.017010
       211         -0.88864748        0.017010
       212         -0.88865409        0.017010
       213         -0.88865613        0.015749
       214         -0.88867966        0.015749
       215         -0.88868206        0.015749
       216         -0.88868874        0.015749
       217         -0.88869169        0.015749
       218         -0.88869364        0.015749
       219         -0.88869464        0.015749
       220         -0.88870770        0.015749
       221         -0.88872312        0.015749
       222         -0.88873340        0.015749
       223         -0.88874075        0.015749
       224         -0.88874540        0.015749
       225         -0.88874557        0.015749
       226         -0.88875546        0.015749
       227         -0.88875598        0.015749
       228         -0.88876146        0.015749
       229         -0.88877809        0.015749
       230         -0.88878110        0.015749
       231         -0.88879428        0.015749
       232         -0.88880564        0.015749
       233         -0.88880612        0.015749
       234         -0.88880964        0.015749
       235         -0.88882004        0.015749
       236         -0.88882203        0.015749
       237         -0.88883255        0.015749
       238         -0.88883950        0.015749
       239         -0.88884044        0.015749
       240         -0.88884503        0.015749
       241         -0.88884515        0.015749
       242         -0.88884831        0.015749
       243         -0.88885286        0.015749
       244         -0.88885770        0.015749
       245         -0.88886111        0.015749
       246         -0.88886569        0.015749
       247         -0.88887510        0.015749
       248         -0.88887756        0.015749
       249         -0.88887872        0.015749
       250         -0.88890115        0.015749
       251         -0.88891246        0.015749
       252         -0.88892378        0.015749
       253         -0.88892634        0.015749
       254         -0.88892903        0.015749
       255         -0.88893033        0.015749
       256         -0.88895099        0.014582
       257         -0.88895355        0.014582
       258         -0.88895401        0.014582
       259         -0.88896098        0.014582
       260         -0.88896284        0.014582
       261         -0.88897861        0.014582
       262         -0.88897908        0.014582
       263         -0.88898470        0.014582
       264         -0.88899307        0.014582
       265         -0.88899412        0.014582
       266         -0.88899548        0.014582
       267         -0.88900066        0.014582
       268         -0.88901612        0.014582
       269         -0.88901887        0.014582
       270         -0.88902105        0.014582
       271         -0.88902248        0.014582
       272         -0.88903397        0.014582
       273         -0.88904435        0.014582
       274         -0.88905311        0.014582
       275         -0.88905798        0.014582
       276         -0.88906140        0.014582
       277         -0.88906223        0.014582
       278         -0.88906983        0.014582
       279         -0.88907188        0.013501
       280         -0.88907635        0.013501
       281         -0.88907808        0.013501
       282         -0.88908921        0.013501
       283         -0.88909295        0.013501
       284         -0.88909930        0.013501
       285         -0.88910226        0.013501
       286         -0.88910409        0.013501
       287         -0.88910614        0.013501
       288         -0.88911932        0.013501
       289         -0.88912502        0.013501
       290         -0.88913052        0.013501
       291         -0.88913269        0.013501
       292         -0.88913325        0.013501
       293         -0.88913515        0.013501
       294         -0.88913971        0.013501
       295         -0.88914089        0.013501
       296         -0.88915214        0.013501
       297         -0.88915531        0.013501
       298         -0.88915608        0.013501
       299         -0.88916465        0.013501
       300         -0.88916580        0.013501
       301         -0.88917110        0.013501
       302         -0.88917831        0.013501
       303         -0.88917833        0.013501
       304         -0.88918086        0.013501
       305         -0.88918390        0.013501
       306         -0.88918872        0.013501
       307         -0.88919667        0.013501
       308         -0.88920217        0.013501
       309         -0.88920717        0.013501
       310         -0.88921079        0.013501
       311         -0.88921660        0.013501
       312         -0.88921855        0.013501
       313         -0.88922082        0.013501
       314         -0.88922100        0.013501
       315         -0.88922973        0.013501
       316         -0.88922995        0.013501
       317         -0.88924129        0.013501
       318         -0.88925149        0.013501
       319         -0.88925574        0.013501
       320         -0.88925719        0.013501
       321         -0.88926190        0.013501
       322         -0.88926894        0.013501
       323         -0.88927006        0.013501
       324         -0.88928171        0.013501
       325         -0.88928317        0.013501
       326         -0.88928443        0.013501
       327         -0.88928537        0.013501
       328         -0.88929084        0.013501
       329         -0.88929554        0.013501
       330         -0.88930098        0.013501
       331         -0.88931519        0.013501
       332         -0.88931629        0.013501
       333         -0.88931855        0.013501
       334         -0.88931923        0.013501
       335         -0.88932949        0.013501
       336         -0.88933393        0.013501
       337         -0.88933403        0.013501
       338         -0.88934370        0.013501
       339         -0.88934892        0.013501
       340         -0.88935080        0.013501
       341         -0.88935927        0.013501
       342         -0.88936520        0.013501
       343         -0.88937178        0.013501
       344         -0.88937536        0.013501
       345         -0.88938031        0.013501
       346         -0.88938696        0.013501
       347         -0.88938975        0.013501
       348         -0.88939116        0.013501
       349         -0.88939493        0.013501
       350         -0.88940442        0.013501
       351         -0.88941132        0.013501
       352         -0.88941526        0.013501
       353         -0.88942062        0.013501
       354         -0.88942968        0.012500
       355         -0.88943801        0.012500
       356         -0.88944108        0.012500
       357         -0.88944487        0.012500
       358         -0.88944538        0.012500
       359         -0.88944630        0.012500
       360         -0.88944668        0.012500
       361         -0.88945310        0.012500
       362         -0.88945671        0.012500
       363         -0.88947122        0.012500
       364         -0.88947893        0.012500
       365         -0.88948296        0.012500
       366         -0.88948303        0.012500
       367         -0.88948361        0.012500
       368         -0.88948575        0.012500
       369         -0.88949078        0.012500
       370         -0.88949425        0.012500
       371         -0.88949543        0.012500
       372         -0.88949808        0.012500
       373         -0.88949976        0.012500
       374         -0.88950205        0.012500
       375         -0.88950381        0.012500
       376         -0.88951401        0.012500
       377         -0.88951403        0.012500
       378         -0.88951634        0.012500
       379         -0.88952155        0.012500
       380         -0.88952621        0.012500
       381         -0.88953471        0.012500
       382         -0.88953519        0.012500
       383         -0.88953688        0.012500
       384         -0.88954290        0.012500
       385         -0.88954507        0.012500
       386         -0.88955084        0.012500
       387         -0.88955487        0.012500
       388         -0.88955727        0.012500
       389         -0.88956090        0.012500
       390         -0.88956462        0.012500
       391         -0.88956654        0.012500
       392         -0.88957084        0.012500
       393         -0.88957299        0.012500
       394         -0.88957952        0.012500
       395         -0.88958096        0.012500
       396         -0.88958224        0.012500
       397         -0.88958580        0.012500
       398         -0.88959382        0.012500
       399         -0.88959695        0.012500
       400         -0.88960670        0.012500
       401         -0.88960768        0.012500
       402         -0.88961821        0.012500
       403         -0.88961848        0.012500
       404         -0.88961886        0.012500
       405         -0.88962569        0.012500
       406         -0.88962870        0.012500
       407         -0.88963730        0.012500
       408         -0.88964227        0.012500
       409         -0.88965153        0.012500
       410         -0.88965910        0.012500
       411         -0.88966414        0.012500
       412         -0.88966694        0.012500
       413         -0.88967312        0.012500
       414         -0.88967520        0.012500
       415         -0.88967631        0.012500
       416         -0.88968299        0.012500
       417         -0.88968312        0.012500
       418         -0.88968668        0.011573
       419         -0.88969248        0.011573
       420         -0.88970016        0.011573
       421         -0.88970178        0.011573
       422         -0.88970282        0.011573
       423         -0.88970534        0.011573
       424         -0.88970961        0.011573
       425         -0.88970966        0.011573
       426         -0.88971598        0.011573
       427         -0.88972555        0.011573
       428         -0.88973156        0.011573
       429         -0.88973489        0.011573
       430         -0.88973562        0.011573
       431         -0.88973876        0.011573
       432         -0.88974385        0.011573
       433         -0.88974778        0.011573
       434         -0.88974850        0.011573
       435         -0.88975871        0.011573
       436         -0.88976357        0.011573
       437         -0.88976684        0.011573
       438         -0.88977092        0.011573
       439         -0.88977251        0.011573
       440         -0.88977925        0.011573
       441         -0.88978469        0.011573
       442         -0.88979477        0.011573
       443         -0.88980272        0.011573
       444         -0.88980732        0.011573
       445         -0.88980821        0.011573
       446         -0.88981006        0.011573
       447         -0.88981307        0.011573
       448         -0.88981355        0.011573
       449         -0.88981485        0.011573
       450         -0.88981575        0.011573
       451         -0.88982210        0.011573
       452         -0.88982266        0.011573
       453         -0.88982510        0.011573
       454         -0.88982524        0.011573
       455         -0.88982654        0.011573
       456         -0.88982757        0.011573
       457         -0.88982967        0.011573
       458         -0.88982980        0.011573
       459         -0.88983216        0.011573
       460         -0.88983705        0.011573
       461         -0.88984320        0.011573
       462         -0.88984387        0.011573
       463         -0.88985605        0.011573
       464         -0.88985867        0.011573
       465         -0.88986436        0.011573
       466         -0.88987058        0.011573
       467         -0.88987273        0.011573
       468         -0.88987309        0.011573
       469         -0.88987526        0.011573
       470         -0.88987779        0.011573
       471         -0.88987972        0.011573
       472         -0.88988158        0.011573
       473         -0.88988330        0.011573
       474         -0.88989311        0.011573
       475         -0.88989477        0.011573
       476         -0.88990196        0.011573
       477         -0.88990353        0.011573
       478         -0.88991028        0.011573
       479         -0.88991738        0.011573
       480         -0.88992557        0.011573
       481         -0.88992584        0.011573
       482         -0.88992693        0.011573
       483         -0.88993150        0.011573
       484         -0.88993748        0.011573
       485         -0.88993960        0.011573
       486         -0.88993980        0.011573
       487         -0.88994484        0.011573
       488         -0.88994516        0.011573
       489         -0.88994828        0.011573
       490         -0.88995012        0.011573
       491         -0.88995194        0.011573
       492         -0.88996025        0.011573
       493         -0.88996102        0.011573
       494         -0.88996160        0.010716
       495         -0.88997089        0.010716
       496         -0.88997095        0.010716
       497         -0.88997718        0.010716
       498         -0.88997887        0.010716
       499         -0.88998044        0.010716
       500         -0.88998264        0.010716
       501         -0.88998388        0.010716
       502         -0.88998605        0.010716
       503         -0.88998627        0.010716
       504         -0.88999117        0.010716
       505         -0.88999773        0.010716
       506         -0.88999874        0.010716
       507         -0.89000543        0.010716
       508         -0.89000851        0.010716
       509         -0.89000872        0.010716
       510         -0.89001107        0.010716
       511         -0.89001346        0.010716
       512         -0.89002024        0.010716
       513         -0.89002201        0.010716
       514         -0.89002570        0.010716
       515         -0.89003086        0.010716
       516         -0.89003221        0.010716
       517         -0.89003279        0.010716
       518         -0.89003437        0.010716
       519         -0.89003498        0.010716
       520         -0.89003512        0.010716
       521         -0.89003617        0.010716
       522         -0.89003747        0.010716
       523         -0.89003844        0.010716
       524         -0.89004392        0.010716
       525         -0.89004411        0.010716
       526         -0.89004784        0.010716
       527         -0.89004863        0.010716
       528         -0.89005253        0.010716
       529         -0.89005437        0.010716
       530         -0.89005628        0.010716
       531         -0.89006083        0.010716
       532         -0.89006557        0.010716
       533         -0.89007598        0.010716
       534         -0.89007744        0.010716
       535         -0.89007997        0.010716
       536         -0.89008620        0.010716
       537         -0.89009168        0.010716
       538         -0.89009742        0.010716
       539         -0.89009767        0.010716
       540         -0.89010308        0.010716
       541         -0.89010437        0.010716
       542         -0.89010661        0.010716
       543         -0.89010784        0.010716
       544         -0.89011095        0.010716
       545         -0.89011793        0.010716
       546         -0.89011906        0.010716
       547         -0.89012300        0.010716
       548         -0.89012411        0.010716
       549         -0.89012444        0.010716
       550         -0.89012565        0.010716
       551         -0.89013451        0.010716
       552         -0.89013623        0.010716
       553         -0.89014008        0.010716
       554         -0.89014028        0.010716
       555         -0.89014132        0.010716
       556         -0.89014175        0.010716
       557         -0.89014405        0.010716
       558         -0.89014825        0.010716
       559         -0.89015084        0.010716
       560         -0.89015106        0.010716
       561         -0.89015109        0.010716
       562         -0.89015610        0.010716
       563         -0.89015722        0.010716
       564         -0.89015765        0.010716
       565         -0.89016128        0.010716
       566         -0.89017229        0.010716
       567         -0.89017352        0.010716
       568         -0.89017574        0.010716
       569         -0.89017826        0.010716
       570         -0.89018820        0.010716
       571         -0.89018839        0.010716
       572         -0.89018846        0.010716
       573         -0.89019065        0.010716
       574         -0.89019223        0.010716
       575         -0.89019377        0.010716
       576         -0.89019566        0.010716
       577         -0.89019791        0.010716
       578         -0.89020412        0.010716
       579         -0.89020569        0.010716
       580         -0.89020630        0.010716
       581         -0.89020953        0.010716
       582         -0.89021034        0.010716
       583         -0.89021407        0.010716
       584         -0.89022299        0.010716
       585         -0.89022335        0.010716
       586         -0.89022336        0.010716
       587         -0.89022338        0.010716
       588         -0.89022421        0.010716
       589         -0.89022715        0.010716
       590         -0.89022935        0.009921
       591         -0.89023114        0.009921
       592         -0.89023208        0.009921
       593         -0.89023225        0.009921
       594         -0.89023571        0.009921
       595         -0.89023656        0.009921
       596         -0.89024107        0.009921
       597         -0.89024627        0.009921
       598         -0.89024842        0.009921
       599         -0.89024881        0.009921
       600         -0.89025025        0.009921
       601         -0.89025553        0.009921
       602         -0.89025605        0.009921
       603         -0.89025746        0.009921
       604         -0.89026046        0.009921
       605         -0.89026476        0.009921
       606         -0.89026598        0.009921
       607         -0.89026651        0.009921
       608         -0.89026937        0.009921
       609         -0.89027082        0.009921
       610         -0.89027128        0.009921
       611         -0.89027757        0.009921
       612         -0.89028367        0.009921
       613         -0.89028512        0.009921
       614         -0.89029183        0.009921
       615         -0.89029360        0.009921
       616         -0.89030129        0.009921
       617         -0.89030216        0.009921
       618         -0.89030277        0.009921
       619         -0.89030538        0.009921
       620         -0.89030646        0.009186
       621         -0.89030850        0.009186
       622         -0.89031100        0.009186
       623         -0.89031299        0.009186
       624         -0.89031662        0.009186
       625         -0.89031705        0.009186
       626         -0.89031946        0.009186
       627         -0.89032003        0.009186
       628         -0.89032340        0.009186
       629         -0.89032603        0.009186
       630         -0.89032773        0.009186
       631         -0.89032792        0.009186
       632         -0.89033295        0.009186
       633         -0.89033503        0.009186
       634         -0.89033786        0.009186
       635         -0.89033949        0.009186
       636         -0.89034117        0.009186
       637         -0.89034178        0.009186
       638         -0.89034392        0.009186
       639         -0.89034677        0.009186
       640         -0.89034699        0.009186
       641         -0.89034806        0.009186
       642         -0.89035067        0.009186
       643         -0.89035185        0.009186
       644         -0.89035234        0.009186
       645         -0.89035803        0.009186
       646         -0.89035889        0.009186
       647         -0.89035916        0.009186
       648         -0.89036784        0.009186
       649         -0.89036934        0.009186
       650         -0.89037381        0.009186
       651         -0.89037899        0.009186
       652         -0.89038100        0.009186
       653         -0.89038353        0.009186
       654         -0.89038443        0.009186
       655         -0.89038457        0.009186
       656         -0.89038506        0.009186
       657         -0.89039022        0.009186
       658         -0.89039219        0.009186
       659         -0.89039406        0.009186
       660         -0.89040083        0.009186
       661         -0.89040175        0.009186
       662         -0.89040304        0.009186
       663         -0.89040435        0.009186
       664         -0.89040443        0.009186
       665         -0.89040822        0.009186
       666         -0.89040868        0.009186
       667         -0.89040906        0.009186
       668         -0.89041119        0.009186
       669         -0.89041149        0.009186
       670         -0.89041340        0.009186
       671         -0.89041717        0.009186
       672         -0.89041905        0.009186
       673         -0.89042392        0.009186
       674         -0.89042680        0.009186
       675         -0.89042937        0.009186
       676         -0.89043109        0.009186
       677         -0.89043580        0.009186
       678         -0.89043690        0.009186
       679         -0.89043921        0.009186
       680         -0.89044368        0.009186
       681         -0.89044598        0.009186
       682         -0.89044968        0.009186
       683         -0.89044971        0.009186
       684         -0.89045259        0.009186
       685         -0.89045411        0.009186
       686         -0.89045483        0.009186
       687         -0.89045702        0.009186
       688         -0.89045733        0.009186
       689         -0.89046271        0.009186
       690         -0.89046421        0.008505
       691         -0.89046524        0.008505
       692         -0.89046569        0.008505
       693         -0.89046648        0.008505
       694         -0.89046883        0.008505
       695         -0.89046928        0.008505
       696         -0.89046994        0.008505
       697         -0.89047302        0.008505
       698         -0.89047433        0.008505
       699         -0.89047447        0.008505
       700         -0.89047536        0.008505
       701         -0.89047994        0.008505
       702         -0.89048146        0.008505
       703         -0.89048343        0.008505
       704         -0.89048444        0.008505
       705         -0.89048728        0.008505
       706         -0.89049003        0.008505
       707         -0.89049328        0.008505
       708         -0.89049601        0.008505
       709         -0.89049803        0.008505
       710         -0.89050267        0.008505
       711         -0.89050420        0.008505
       712         -0.89050576        0.008505
       713         -0.89050936        0.008505
       714         -0.89051159        0.008505
       715         -0.89051294        0.008505
       716         -0.89051440        0.008505
       717         -0.89051531        0.008505
       718         -0.89051599        0.008505
       719         -0.89051865        0.008505
       720         -0.89052191        0.008505
       721         -0.89052256        0.008505
       722         -0.89052313        0.008505
       723         -0.89052379        0.007875
       724         -0.89052499        0.007875
       725         -0.89052737        0.007875
       726         -0.89052813        0.007875
       727         -0.89053366        0.007875
       728         -0.89053816        0.007875
       729         -0.89053819        0.007875
       730         -0.89054002        0.007875
       731         -0.89054127        0.007875
       732         -0.89054184        0.007875
       733         -0.89054439        0.007875
       734         -0.89054523        0.007875
       735         -0.89054710        0.007875
       736         -0.89054882        0.007875
       737         -0.89055025        0.007875
       738         -0.89055041        0.007875
       739         -0.89055231        0.007291
       740         -0.89055309        0.007291
       741         -0.89055330        0.007291
       742         -0.89055353        0.007291
       743         -0.89055587        0.007291
       744         -0.89055883        0.007291
       745         -0.89056311        0.007291
       746         -0.89056375        0.007291
       747         -0.89056437        0.007291
       748         -0.89056604        0.007291
       749         -0.89056746        0.007291
       750         -0.89056932        0.007291
       751         -0.89056997        0.007291
       752         -0.89057118        0.007291
       753         -0.89057355        0.007291
       754         -0.89057628        0.007291
       755         -0.89057761        0.007291
       756         -0.89057807        0.007291
       757         -0.89057863        0.007291
       758         -0.89058114        0.007291
       759         -0.89058130        0.007291
       760         -0.89058308        0.007291
       761         -0.89058600        0.007291
       762         -0.89058747        0.007291
       763         -0.89058920        0.007291
       764         -0.89059234        0.007291
       765         -0.89059261        0.007291
       766         -0.89059490        0.007291
       767         -0.89059622        0.007291
       768         -0.89059797        0.007291
       769         -0.89059970        0.007291
       770         -0.89060281        0.007291
       771         -0.89060348        0.007291
       772         -0.89060425        0.006750
       773         -0.89060549        0.006750
       774         -0.89060903        0.006750
       775         -0.89061007        0.006750
       776         -0.89061086        0.006750
       777         -0.89061138        0.006750
       778         -0.89061366        0.006750
       779         -0.89061518        0.006750
       780         -0.89061619        0.006750
       781         -0.89061624        0.006750
       782         -0.89061778        0.006750
       783         -0.89061934        0.006750
       784         -0.89062221        0.006750
       785         -0.89062251        0.006750
       786         -0.89062355        0.006750
       787         -0.89062484        0.006750
       788         -0.89062541        0.006750
       789         -0.89062703        0.006750
       790         -0.89063105        0.006750
       791         -0.89063247        0.006750
       792         -0.89063388        0.006750
       793         -0.89063630        0.006750
       794         -0.89063814        0.006750
       795         -0.89063829        0.006750
       796         -0.89063978        0.006750
       797         -0.89064022        0.006750
       798         -0.89064085        0.006750
       799         -0.89064340        0.006750
       800         -0.89064397        0.006750
       801         -0.89064445        0.006750
       802         -0.89064558        0.006750
       803         -0.89064757        0.006750
       804         -0.89065048        0.006750
       805         -0.89065376        0.006750
       806         -0.89065487        0.006750
       807         -0.89065696        0.006750
       808         -0.89065784        0.006750
       809         -0.89065902        0.006750
       810         -0.89065991        0.006750
       811         -0.89066084        0.006250
       812         -0.89066125        0.006250
       813         -0.89066217        0.006250
       814         -0.89066361        0.006250
       815         -0.89066441        0.006250
       816         -0.89066528        0.005787
       817         -0.89066582        0.005787
       818         -0.89066612        0.005787
       819         -0.89066700        0.005787
       820         -0.89066738        0.005787
       821         -0.89066950        0.005787
       822         -0.89067065        0.005787
       823         -0.89067202        0.005787
       824         -0.89067347        0.005787
       825         -0.89067520        0.005787
       826         -0.89067552        0.005787
       827         -0.89067630        0.005787
       828         -0.89067902        0.005787
       829         -0.89067931        0.005787
       830         -0.89068106        0.005787
       831         -0.89068122        0.005787
       832         -0.89068124        0.005787
       833         -0.89068366        0.005787
       834         -0.89068535        0.005787
       835         -0.89068579        0.005787
       836         -0.89068624        0.005787
       837         -0.89068683        0.005787
       838         -0.89068800        0.005787
       839         -0.89068880        0.005787
       840         -0.89068986        0.005787
       841         -0.89069138        0.005787
       842         -0.89069188        0.005787
       843         -0.89069229        0.005787
       844         -0.89069542        0.005787
       845         -0.89069583        0.005787
       846         -0.89069646        0.005787
       847         -0.89069842        0.005787
       848         -0.89069888        0.005787
       849         -0.89070020        0.005787
       850         -0.89070037        0.005787
       851         -0.89070261        0.005787
       852         -0.89070297        0.005787
       853         -0.89070330        0.005787
       854         -0.89070344        0.005787
       855         -0.89070463        0.005787
       856         -0.89070501        0.005787
       857         -0.89070556        0.005787
       858         -0.89070577        0.005787
       859         -0.89070610        0.005787
       860         -0.89070854        0.005787
       861         -0.89070898        0.005787
       862         -0.89071078        0.005787
       863         -0.89071233        0.005787
       864         -0.89071361        0.005787
       865         -0.89071483        0.005787
       866         -0.89071723        0.005787
       867         -0.89071759        0.005787
       868         -0.89071782        0.005787
       869         -0.89071793        0.005787
       870         -0.89071918        0.005787
       871         -0.89072075        0.005787
       872         -0.89072114        0.005787
       873         -0.89072170        0.005787
       874         -0.89072307        0.005787
       875         -0.89072320        0.005787
       876         -0.89072346        0.005787
       877         -0.89072524        0.005787
       878         -0.89072572        0.005787
       879         -0.89072630        0.005787
       880         -0.89072675        0.005787
       881         -0.89072708        0.005787
       882         -0.89072874        0.005787
       883         -0.89073188        0.005787
       884         -0.89073266        0.005787
       885         -0.89073560        0.005787
       886         -0.89073578        0.005787
       887         -0.89073867        0.005787
       888         -0.89074005        0.005787
       889         -0.89074063        0.005787
       890         -0.89074250        0.005787
       891         -0.89074371        0.005787
       892         -0.89074414        0.005787
       893         -0.89074468        0.005787
       894         -0.89074523        0.005787
       895         -0.89074621        0.005787
       896         -0.89074743        0.005787
       897         -0.89074864        0.005787
       898         -0.89074984        0.005787
       899         -0.89075195        0.005787
       900         -0.89075294        0.005787
       901         -0.89075349        0.005787
       902         -0.89075366        0.005787
       903         -0.89075370        0.005787
       904         -0.89075379        0.005787
       905         -0.89075388        0.005787
       906         -0.89075389        0.005787
       907         -0.89075596        0.005787
       908         -0.89075664        0.005787
       909         -0.89075741        0.005787
       910         -0.89075748        0.005787
       911         -0.89075813        0.005787
       912         -0.89075813        0.005787
       913         -0.89075822        0.005787
       914         -0.89075837        0.005787
       915         -0.89075894        0.005787
       916         -0.89076189        0.005787
       917         -0.89076270        0.005787
       918         -0.89076450        0.005787
       919         -0.89076527        0.005787
       920         -0.89076643        0.005787
       921         -0.89076684        0.005787
       922         -0.89076716        0.005787
       923         -0.89076788        0.005787
       924         -0.89076822        0.005787
       925         -0.89076859        0.005787
       926         -0.89076931        0.005787
       927         -0.89076938        0.005358
       928         -0.89077139        0.005358
       929         -0.89077140        0.005358
       930         -0.89077165        0.005358
       931         -0.89077272        0.005358
       932         -0.89077308        0.005358
       933         -0.89077380        0.005358
       934         -0.89077740        0.005358
       935         -0.89078022        0.005358
       936         -0.89078028        0.005358
       937         -0.89078168        0.005358
       938         -0.89078228        0.005358
       939         -0.89078313        0.005358
       940         -0.89078318        0.005358
       941         -0.89078327        0.005358
       942         -0.89078383        0.005358
       943         -0.89078456        0.005358
       944         -0.89078561        0.005358
       945         -0.89078654        0.005358
       946         -0.89078729        0.005358
       947         -0.89078754        0.005358
       948         -0.89078756        0.005358
       949         -0.89078875        0.005358
       950         -0.89078877        0.005358
       951         -0.89079089        0.005358
       952         -0.89079426        0.005358
       953         -0.89079552        0.005358
       954         -0.89079699        0.005358
       955         -0.89079749        0.005358
       956         -0.89079766        0.005358
       957         -0.89079928        0.005358
       958         -0.89080038        0.005358
       959         -0.89080103        0.005358
       960         -0.89080160        0.005358
       961         -0.89080168        0.005358
       962         -0.89080333        0.005358
       963         -0.89080372        0.005358
       964         -0.89080499        0.005358
       965         -0.89080525        0.005358
       966         -0.89080765        0.005358
       967         -0.89080830        0.005358
       968         -0.89080860        0.005358
       969         -0.89080913        0.005358
       970         -0.89080953        0.005358
       971         -0.89081175        0.005358
       972         -0.89081178        0.005358
       973         -0.89081204        0.005358
       974         -0.89081207        0.005358
       975         -0.89081278        0.005358
       976         -0.89081498        0.005358
       977         -0.89081566        0.005358
       978         -0.89081688        0.005358
       979         -0.89081800        0.005358
       980         -0.89081899        0.005358
       981         -0.89081905        0.005358
       982         -0.89082055        0.005358
       983         -0.89082103        0.005358
       984         -0.89082111        0.005358
       985         -0.89082215        0.005358
       986         -0.89082219        0.005358
       987         -0.89082303        0.005358
       988         -0.89082440        0.005358
       989         -0.89082632        0.005358
       990         -0.89082640        0.005358
       991         -0.89082692        0.005358
       992         -0.89082713        0.005358
       993         -0.89082807        0.005358
       994         -0.89082877        0.005358
       995         -0.89082957        0.005358
       996         -0.89082970        0.005358
       997         -0.89082994        0.005358
       998         -0.89083146        0.005358
       999         -0.89083159        0.005358
      1000         -0.89083279        0.005358
      1001         -0.89083374        0.005358
      1002         -0.89083404        0.005358
      1003         -0.89083406        0.005358
      1004         -0.89083473        0.005358
      1005         -0.89083552        0.005358
      1006         -0.89083589        0.005358
      1007         -0.89083603        0.005358
      1008         -0.89083667        0.005358
      1009         -0.89083830        0.005358
      1010         -0.89083834        0.005358
      1011         -0.89083871        0.005358
      1012         -0.89083917        0.005358
      1013         -0.89083918        0.005358
      1014         -0.89084030        0.005358
      1015         -0.89084045        0.005358
      1016         -0.89084060        0.005358
      1017         -0.89084218        0.005358
      1018         -0.89084303        0.005358
      1019         -0.89084365        0.005358
      1020         -0.89084385        0.005358
      1021         -0.89084462        0.005358
      1022         -0.89084638        0.005358
      1023         -0.89084669        0.005358
      1024         -0.89084716        0.005358
      1025         -0.89084754        0.005358
      1026         -0.89084844        0.005358
      1027         -0.89084932        0.005358
      1028         -0.89085044        0.005358
      1029         -0.89085056        0.005358
      1030         -0.89085163        0.005358
      1031         -0.89085271        0.005358
      1032         -0.89085475        0.005358
      1033         -0.89085537        0.005358
      1034         -0.89085559        0.004961
      1035         -0.89085742        0.004961
      1036         -0.89085902        0.004961
      1037         -0.89085923        0.004961
      1038         -0.89085971        0.004961
      1039         -0.89086001        0.004961
      1040         -0.89086075        0.004961
      1041         -0.89086085        0.004961
      1042         -0.89086093        0.004961
      1043         -0.89086289        0.004961
      1044         -0.89086331        0.004961
      1045         -0.89086398        0.004961
      1046         -0.89086450        0.004961
      1047         -0.89086451        0.004961
      1048         -0.89086540        0.004961
      1049         -0.89086549        0.004961
      1050         -0.89086651        0.004961
      1051         -0.89086755        0.004961
      1052         -0.89086925        0.004961
      1053         -0.89086964        0.004961
      1054         -0.89086966        0.004961
      1055         -0.89087007        0.004961
      1056         -0.89087077        0.004961
      1057         -0.89087083        0.004961
      1058         -0.89087088        0.004961
      1059         -0.89087149        0.004961
      1060         -0.89087193        0.004961
      1061         -0.89087326        0.004961
      1062         -0.89087409        0.004961
      1063         -0.89087468        0.004961
      1064         -0.89087572        0.004961
      1065         -0.89087584        0.004961
      1066         -0.89087704        0.004961
      1067         -0.89087735        0.004961
      1068         -0.89087817        0.004961
      1069         -0.89087864        0.004961
      1070         -0.89087945        0.004961
      1071         -0.89088054        0.004961
      1072         -0.89088173        0.004961
      1073         -0.89088222        0.004961
      1074         -0.89088293        0.004961
      1075         -0.89088394        0.004961
      1076         -0.89088429        0.004961
      1077         -0.89088446        0.004961
      1078         -0.89088457        0.004961
      1079         -0.89088491        0.004961
      1080         -0.89088492        0.004961
      1081         -0.89088561        0.004961
      1082         -0.89088633        0.004961
      1083         -0.89088679        0.004961
      1084         -0.89088754        0.004961
      1085         -0.89088854        0.004961
      1086         -0.89088861        0.004961
      1087         -0.89088952        0.004961
      1088         -0.89088956        0.004961
      1089         -0.89089045        0.004961
      1090         -0.89089142        0.004961
      1091         -0.89089146        0.004961
      1092         -0.89089259        0.004961
      1093         -0.89089305        0.004961
      1094         -0.89089489        0.004961
      1095         -0.89089504        0.004961
      1096         -0.89089508        0.004961
      1097         -0.89089528        0.004961
      1098         -0.89089542        0.004961
      1099         -0.89089570        0.004961
      1100         -0.89089653        0.004961
      1101         -0.89089694        0.004961
      1102         -0.89089732        0.004961
      1103         -0.89089917        0.004961
      1104         -0.89089993        0.004961
      1105         -0.89090034        0.004961
      1106         -0.89090040        0.004961
      1107         -0.89090051        0.004961
      1108         -0.89090082        0.004961
      1109         -0.89090148        0.004961
      1110         -0.89090196        0.004961
      1111         -0.89090259        0.004961
      1112         -0.89090293        0.004961
      1113         -0.89090420        0.004961
      1114         -0.89090567        0.004961
      1115         -0.89090652        0.004961
      1116         -0.89090697        0.004961
      1117         -0.89090733        0.004961
      1118         -0.89090738        0.004961
      1119         -0.89090921        0.004961
      1120         -0.89091022        0.004961
      1121         -0.89091081        0.004961
      1122         -0.89091097        0.004961
      1123         -0.89091195        0.004961
      1124         -0.89091214        0.004961
      1125         -0.89091273        0.004961
      1126         -0.89091317        0.004961
      1127         -0.89091332        0.004961
      1128         -0.89091400        0.004961
      1129         -0.89091434        0.004961
      1130         -0.89091518        0.004961
      1131         -0.89091553        0.004961
      1132         -0.89091585        0.004961
      1133         -0.89091613        0.004961
      1134         -0.89091744        0.004961
      1135         -0.89091776        0.004961
      1136         -0.89091846        0.004961
      1137         -0.89091878        0.004961
      1138         -0.89091971        0.004961
      1139         -0.89092065        0.004961
      1140         -0.89092149        0.004961
      1141         -0.89092150        0.004961
      1142         -0.89092167        0.004961
      1143         -0.89092341        0.004961
      1144         -0.89092392        0.004961
      1145         -0.89092394        0.004961
      1146         -0.89092440        0.004961
      1147         -0.89092523        0.004961
      1148         -0.89092591        0.004961
      1149         -0.89092678        0.004961
      1150         -0.89092760        0.004961
      1151         -0.89092764        0.004961
      1152         -0.89092786        0.004961
      1153         -0.89092839        0.004961
      1154         -0.89092861        0.004961
      1155         -0.89092907        0.004961
      1156         -0.89092964        0.004961
      1157         -0.89092991        0.004961
      1158         -0.89093021        0.004961
      1159         -0.89093032        0.004961
      1160         -0.89093213        0.004961
      1161         -0.89093225        0.004961
      1162         -0.89093330        0.004961
      1163         -0.89093354        0.004961
      1164         -0.89093402        0.004961
      1165         -0.89093635        0.004961
      1166         -0.89093702        0.004961
      1167         -0.89093709        0.004961
      1168         -0.89093727        0.004961
      1169         -0.89093862        0.004961
      1170         -0.89093928        0.004961
      1171         -0.89093980        0.004961
      1172         -0.89093995        0.004961
      1173         -0.89094054        0.004961
      1174         -0.89094059        0.004961
      1175         -0.89094156        0.004961
      1176         -0.89094177        0.004961
      1177         -0.89094193        0.004961
      1178         -0.89094276        0.004961
      1179         -0.89094292        0.004961
      1180         -0.89094329        0.004961
      1181         -0.89094411        0.004961
      1182         -0.89094448        0.004961
      1183         -0.89094460        0.004961
      1184         -0.89094479        0.004961
      1185         -0.89094484        0.004961
      1186         -0.89094510        0.004961
      1187         -0.89094540        0.004961
      1188         -0.89094617        0.004961
      1189         -0.89094650        0.004961
      1190         -0.89094796        0.004961
      1191         -0.89094810        0.004961
      1192         -0.89094975        0.004961
      1193         -0.89095075        0.004961
      1194         -0.89095147        0.004961
      1195         -0.89095176        0.004961
      1196         -0.89095176        0.004961
      1197         -0.89095324        0.004961
      1198         -0.89095504        0.004961
      1199         -0.89095534        0.004961
      1200         -0.89095612        0.004961
      1201         -0.89095689        0.004961
      1202         -0.89095741        0.004961
      1203         -0.89095758        0.004961
      1204         -0.89095774        0.004961
      1205         -0.89095821        0.004961
      1206         -0.89095844        0.004961
      1207         -0.89095916        0.004961
      1208         -0.89095936        0.004961
      1209         -0.89095988        0.004961
      1210         -0.89096093        0.004961
      1211         -0.89096137        0.004961
      1212         -0.89096144        0.004961
      1213         -0.89096165        0.004961
      1214         -0.89096178        0.004961
      1215         -0.89096209        0.004961
      1216         -0.89096274        0.004961
      1217         -0.89096318        0.004961
      1218         -0.89096338        0.004961
      1219         -0.89096365        0.004961
      1220         -0.89096385        0.004961
      1221         -0.89096420        0.004961
      1222         -0.89096457        0.004961
      1223         -0.89096469        0.004961
      1224         -0.89096536        0.004961
      1225         -0.89096563        0.004961
      1226         -0.89096632        0.004593
      1227         -0.89096715        0.004593
      1228         -0.89096829        0.004593
      1229         -0.89096872        0.004593
      1230         -0.89096901        0.004593
      1231         -0.89096946        0.004593
      1232         -0.89096948        0.004593
      1233         -0.89097006        0.004593
      1234         -0.89097093        0.004593
      1235         -0.89097121        0.004252
      1236         -0.89097149        0.004252
      1237         -0.89097204        0.004252
      1238         -0.89097311        0.004252
      1239         -0.89097315        0.004252
      1240         -0.89097455        0.004252
      1241         -0.89097485        0.004252
      1242         -0.89097497        0.004252
      1243         -0.89097581        0.004252
      1244         -0.89097597        0.004252
      1245         -0.89097671        0.004252
      1246         -0.89097701        0.004252
      1247         -0.89097751        0.004252
      1248         -0.89097921        0.004252
      1249         -0.89097926        0.004252
      1250         -0.89097984        0.004252
      1251         -0.89098038        0.004252
      1252         -0.89098042        0.004252
      1253         -0.89098065        0.004252
      1254         -0.89098067        0.004252
      1255         -0.89098197        0.004252
      1256         -0.89098233        0.004252
      1257         -0.89098267        0.004252
      1258         -0.89098286        0.004252
      1259         -0.89098342        0.004252
      1260         -0.89098365        0.004252
      1261         -0.89098386        0.004252
      1262         -0.89098400        0.003937
      1263         -0.89098446        0.003937
      1264         -0.89098471        0.003937
      1265         -0.89098529        0.003937
      1266         -0.89098539        0.003937
      1267         -0.89098670        0.003937
      1268         -0.89098734        0.003937
      1269         -0.89098765        0.003937
      1270         -0.89098772        0.003937
      1271         -0.89098796        0.003937
      1272         -0.89098837        0.003937
      1273         -0.89098839        0.003937
      1274         -0.89098878        0.003937
      1275         -0.89098918        0.003937
      1276         -0.89098947        0.003937
      1277         -0.89098958        0.003937
      1278         -0.89099061        0.003937
      1279         -0.89099124        0.003937
      1280         -0.89099184        0.003937
      1281         -0.89099197        0.003937
      1282         -0.89099203        0.003937
      1283         -0.89099205        0.003937
      1284         -0.89099239        0.003937
      1285         -0.89099252        0.003937
      1286         -0.89099262        0.003645
      1287         -0.89099262        0.003645
      1288         -0.89099302        0.003645
      1289         -0.89099306        0.003645
      1290         -0.89099341        0.003645
      1291         -0.89099378        0.003645
      1292         -0.89099402        0.003645
      1293         -0.89099408        0.003645
      1294         -0.89099437        0.003645
      1295         -0.89099485        0.003645
      1296         -0.89099507        0.003645
      1297         -0.89099513        0.003645
      1298         -0.89099519        0.003645
      1299         -0.89099521        0.003645
      1300         -0.89099542        0.003645
      1301         -0.89099642        0.003645
      1302         -0.89099671        0.003645
      1303         -0.89099702        0.003375
      1304         -0.89099702        0.003375
      1305         -0.89099711        0.003375
      1306         -0.89099724        0.003375
      1307         -0.89099747        0.003375
      1308         -0.89099756        0.003375
      1309         -0.89099772        0.003375
      1310         -0.89099785        0.003375
      1311         -0.89099798        0.003375
      1312         -0.89099817        0.003375
      1313         -0.89099873        0.003375
      1314         -0.89099897        0.003375
      1315         -0.89099910        0.003375
      1316         -0.89099917        0.003375
      1317         -0.89099918        0.003375
      1318         -0.89099995        0.003375
      1319         -0.89100001        0.003375
      1320         -0.89100015        0.003375
      1321         -0.89100069        0.003375
      1322         -0.89100076        0.003375
      1323         -0.89100127        0.003375
      1324         -0.89100145        0.003375
      1325         -0.89100238        0.003375
      1326         -0.89100253        0.003375
      1327         -0.89100278        0.003375
      1328         -0.89100330        0.003375
      1329         -0.89100377        0.003375
      1330         -0.89100427        0.003375
      1331         -0.89100459        0.003375
      1332         -0.89100467        0.003375
      1333         -0.89100480        0.003375
      1334         -0.89100516        0.003375
      1335         -0.89100554        0.003125
      1336         -0.89100575        0.003125
      1337         -0.89100678        0.003125
      1338         -0.89100678        0.003125
      1339         -0.89100688        0.003125
      1340         -0.89100696        0.003125
      1341         -0.89100697        0.003125
      1342         -0.89100745        0.003125
      1343         -0.89100749        0.003125
      1344         -0.89100815        0.003125
      1345         -0.89100822        0.003125
      1346         -0.89100827        0.003125
      1347         -0.89100873        0.003125
      1348         -0.89100925        0.003125
      1349         -0.89100927        0.003125
      1350         -0.89100944        0.003125
      1351         -0.89100947        0.003125
      1352         -0.89100951        0.003125
      1353         -0.89100959        0.003125
      1354         -0.89100972        0.003125
      1355         -0.89100983        0.003125
      1356         -0.89101014        0.003125
      1357         -0.89101014        0.003125
      1358         -0.89101022        0.003125
      1359         -0.89101052        0.003125
      1360         -0.89101111        0.003125
      1361         -0.89101148        0.003125
      1362         -0.89101198        0.003125
      1363         -0.89101199        0.003125
      1364         -0.89101199        0.003125
      1365         -0.89101214        0.003125
      1366         -0.89101220        0.003125
      1367         -0.89101244        0.003125
      1368         -0.89101262        0.003125
      1369         -0.89101282        0.003125
      1370         -0.89101287        0.003125
      1371         -0.89101406        0.003125
      1372         -0.89101420        0.003125
      1373         -0.89101453        0.003125
      1374         -0.89101485        0.003125
      1375         -0.89101509        0.003125
      1376         -0.89101524        0.003125
      1377         -0.89101550        0.003125
      1378         -0.89101566        0.003125
      1379         -0.89101593        0.003125
      1380         -0.89101604        0.003125
      1381         -0.89101691        0.003125
      1382         -0.89101717        0.003125
      1383         -0.89101737        0.003125
      1384         -0.89101766        0.003125
      1385         -0.89101771        0.003125
      1386         -0.89101816        0.003125
      1387         -0.89101831        0.003125
      1388         -0.89101859        0.003125
      1389         -0.89101867        0.003125
      1390         -0.89101906        0.003125
      1391         -0.89101940        0.003125
      1392         -0.89101961        0.003125
      1393         -0.89101982        0.003125
      1394         -0.89101989        0.003125
      1395         -0.89102006        0.003125
      1396         -0.89102078        0.003125
      1397         -0.89102150        0.003125
      1398         -0.89102179        0.003125
      1399         -0.89102185        0.003125
      1400         -0.89102228        0.003125
      1401         -0.89102232        0.003125
      1402         -0.89102250        0.003125
      1403         -0.89102259        0.003125
      1404         -0.89102262        0.003125
      1405         -0.89102273        0.003125
      1406         -0.89102291        0.003125
      1407         -0.89102291        0.003125
      1408         -0.89102370        0.003125
      1409         -0.89102408        0.003125
      1410         -0.89102422        0.003125
      1411         -0.89102440        0.003125
      1412         -0.89102458        0.003125
      1413         -0.89102514        0.003125
      1414         -0.89102527        0.003125
      1415         -0.89102552        0.003125
      1416         -0.89102583        0.003125
      1417         -0.89102605        0.003125
      1418         -0.89102631        0.003125
      1419         -0.89102650        0.003125
      1420         -0.89102658        0.003125
      1421         -0.89102686        0.003125
      1422         -0.89102699        0.003125
      1423         -0.89102707        0.003125
      1424         -0.89102722        0.003125
      1425         -0.89102764        0.003125
      1426         -0.89102791        0.003125
      1427         -0.89102857        0.003125
      1428         -0.89102872        0.003125
      1429         -0.89102883        0.003125
      1430         -0.89102897        0.003125
      1431         -0.89102903        0.003125
      1432         -0.89102940        0.003125
      1433         -0.89102968        0.003125
      1434         -0.89102990        0.003125
      1435         -0.89103002        0.003125
      1436         -0.89103058        0.003125
      1437         -0.89103065        0.003125
      1438         -0.89103105        0.003125
      1439         -0.89103110        0.003125
      1440         -0.89103132        0.003125
      1441         -0.89103149        0.003125
      1442         -0.89103183        0.003125
      1443         -0.89103183        0.003125
      1444         -0.89103187        0.003125
      1445         -0.89103206        0.003125
      1446         -0.89103232        0.003125
      1447         -0.89103277        0.003125
      1448         -0.89103280        0.003125
      1449         -0.89103306        0.003125
      1450         -0.89103345        0.003125
      1451         -0.89103360        0.003125
      1452         -0.89103376        0.002893
      1453         -0.89103394        0.002893
      1454         -0.89103433        0.002679
      1455         -0.89103437        0.002679
      1456         -0.89103448        0.002679
      1457         -0.89103455        0.002679
      1458         -0.89103471        0.002679
      1459         -0.89103478        0.002679
      1460         -0.89103490        0.002679
      1461         -0.89103498        0.002679
      1462         -0.89103516        0.002679
      1463         -0.89103529        0.002679
      1464         -0.89103555        0.002679
      1465         -0.89103561        0.002679
      1466         -0.89103589        0.002679
      1467         -0.89103601        0.002679
      1468         -0.89103605        0.002679
      1469         -0.89103606        0.002679
      1470         -0.89103625        0.002679
      1471         -0.89103629        0.002679
      1472         -0.89103631        0.002679
      1473         -0.89103654        0.002679
      1474         -0.89103671        0.002679
      1475         -0.89103675        0.002679
      1476         -0.89103700        0.002679
      1477         -0.89103719        0.002679
      1478         -0.89103766        0.002679
      1479         -0.89103780        0.002679
      1480         -0.89103808        0.002679
      1481         -0.89103818        0.002679
      1482         -0.89103826        0.002679
      1483         -0.89103855        0.002679
      1484         -0.89103865        0.002679
      1485         -0.89103875        0.002679
      1486         -0.89103918        0.002679
      1487         -0.89103935        0.002679
      1488         -0.89103940        0.002679
      1489         -0.89103940        0.002679
      1490         -0.89103948        0.002679
      1491         -0.89103960        0.002679
      1492         -0.89103965        0.002679
      1493         -0.89103976        0.002679
      1494         -0.89103980        0.002679
      1495         -0.89103999        0.002679
      1496         -0.89104039        0.002679
      1497         -0.89104045        0.002679
      1498         -0.89104079        0.002679
      1499         -0.89104133        0.002679
      1500         -0.89104133        0.002679
      1501         -0.89104170        0.002679
      1502         -0.89104174        0.002480
      1503         -0.89104178        0.002480
      1504         -0.89104183        0.002480
      1505         -0.89104212        0.002480
      1506         -0.89104221        0.002480
      1507         -0.89104235        0.002480
      1508         -0.89104239        0.002480
      1509         -0.89104275        0.002480
      1510         -0.89104294        0.002296
      1511         -0.89104298        0.002296
      1512         -0.89104328        0.002296
      1513         -0.89104329        0.002296
      1514         -0.89104405        0.002296
      1515         -0.89104410        0.002296
      1516         -0.89104415        0.002296
      1517         -0.89104423        0.002296
      1518         -0.89104440        0.002296
      1519         -0.89104444        0.002296
      1520         -0.89104461        0.002296
      1521         -0.89104470        0.002296
      1522         -0.89104480        0.002296
      1523         -0.89104504        0.002296
      1524         -0.89104518        0.002296
      1525         -0.89104531        0.002296
      1526         -0.89104549        0.002296
      1527         -0.89104574        0.002296
      1528         -0.89104576        0.002296
      1529         -0.89104587        0.002296
      1530         -0.89104603        0.002296
      1531         -0.89104640        0.002296
      1532         -0.89104643        0.002296
      1533         -0.89104649        0.002296
      1534         -0.89104697        0.002296
      1535         -0.89104730        0.002296
      1536         -0.89104735        0.002296
      1537         -0.89104745        0.002296
      1538         -0.89104779        0.002296
      1539         -0.89104821        0.002296
      1540         -0.89104844        0.002296
      1541         -0.89104845        0.002296
      1542         -0.89104871        0.002296
      1543         -0.89104908        0.002296
      1544         -0.89104917        0.002296
      1545         -0.89104929        0.002296
      1546         -0.89104944        0.002296
      1547         -0.89104950        0.002296
      1548         -0.89104952        0.002296
      1549         -0.89104968        0.002296
      1550         -0.89105009        0.002296
      1551         -0.89105039        0.002296
[...]
   1       0.46877,   -0.73908    -0.24353,    0.40180    -0.05652,   -0.01965    -0.03105,    0.02574    -0.04649,    0.03806    -0.00335,   -0.01487
   2       0.43609,    0.17732     0.80571,    0.32791     0.06940,   -0.01787     0.01214,   -0.00401     0.08255,   -0.04039    -0.04698,    0.02010
   3       0.05598,   -0.02667    -0.00268,   -0.03883     0.02470,    0.88098    -0.00221,   -0.44933    -0.00097,   -0.02893    -0.05230,    0.04634
   4      -0.01978,   -0.04719    -0.04120,    0.03471     0.28686,   -0.33200     0.58977,   -0.65943     0.05659,   -0.00074     0.01321,   -0.06581
   5       0.03048,    0.00876     0.03047,   -0.01586    -0.05138,    0.02386    -0.00501,   -0.01894     0.24669,    0.30724     0.28831,    0.23753
   6       0.00563,    0.03097     0.02835,    0.01278     0.06242,    0.00115     0.04998,    0.04916    -0.31425,   -0.21102    -0.35107,   -0.28675
   7      -0.01325,    0.02925     0.01754,   -0.00995     0.00738,    0.02198     0.00851,   -0.00383    -0.33426,    0.33510    -0.27588,    0.22714
   8       0.01027,    0.02931    -0.01070,    0.07464    -0.05733,   -0.03191     0.01044,    0.00005    -0.28453,   -0.13225     0.40916,    0.16731
   9       0.03128,    0.00267     0.03076,   -0.03646     0.01261,    0.07238    -0.05607,    0.02021    -0.02288,    0.41602     0.00933,   -0.42170
  10       0.02771,   -0.01366    -0.08628,   -0.01303    -0.06673,   -0.01497    -0.04837,    0.04743     0.43445,    0.02357    -0.37392,   -0.04365

                     7                       8                       9                      10  
       ----------------------- ----------------------- ----------------------- -----------------------
   1      -0.02514,    0.01643     0.03098,   -0.02064     0.00031,    0.02760    -0.02100,    0.02687
   2       0.01042,    0.02125    -0.02669,   -0.05198    -0.01424,   -0.01847    -0.02640,    0.01047
   3      -0.01292,    0.06002    -0.03640,   -0.04794    -0.00679,    0.02410     0.04738,   -0.00273
   4       0.05516,   -0.01858    -0.04697,    0.05371    -0.01055,   -0.01518    -0.03469,    0.03955
   5       0.32307,    0.36153     0.39844,    0.46476     0.19410,    0.22366    -0.03882,    0.01987
   6      -0.00639,    0.01910     0.18004,    0.18090     0.41475,    0.36557     0.38408,    0.34892
   7       0.42036,   -0.36276     0.14261,   -0.16092    -0.22726,    0.19059    -0.34421,    0.29194
   8       0.43783,    0.12606    -0.25842,   -0.10434    -0.25991,   -0.06801     0.55362,    0.17651
   9      -0.00619,   -0.00386    -0.06471,    0.29138    -0.03311,   -0.60542     0.02521,    0.42292
  10       0.48702,    0.05269    -0.57746,   -0.01188     0.27373,    0.04074    -0.01466,   -0.02784

                   WFN1 Final beta Correlation Function Analysis
                   ---------------------------------------------


 global array: Cb[1:10,1:10],  handle: -980 

                     1                       2                       3                       4                       5                       6  
       ----------------------- ----------------------- ----------------------- ----------------------- ----------------------- -----------------------
   1       0.46877,   -0.73908    -0.24353,    0.40180    -0.05652,   -0.01965    -0.03105,    0.02574    -0.04649,    0.03806    -0.00335,   -0.01487
   2       0.43609,    0.17732     0.80571,    0.32791     0.06940,   -0.01787     0.01214,   -0.00401     0.08255,   -0.04039    -0.04698,    0.02010
   3       0.05598,   -0.02667    -0.00268,   -0.03883     0.02470,    0.88098    -0.00221,   -0.44933    -0.00097,   -0.02893    -0.05230,    0.04634
   4      -0.01978,   -0.04719    -0.04120,    0.03471     0.28686,   -0.33200     0.58977,   -0.65943     0.05659,   -0.00074     0.01321,   -0.06581
   5       0.03048,    0.00876     0.03047,   -0.01586    -0.05138,    0.02386    -0.00501,   -0.01894     0.24669,    0.30724     0.28831,    0.23753
   6       0.00563,    0.03097     0.02835,    0.01278     0.06242,    0.00115     0.04998,    0.04916    -0.31425,   -0.21102    -0.35107,   -0.28675
   7      -0.01325,    0.02925     0.01754,   -0.00995     0.00738,    0.02198     0.00851,   -0.00383    -0.33426,    0.33510    -0.27588,    0.22714
   8       0.01027,    0.02931    -0.01070,    0.07464    -0.05733,   -0.03191     0.01044,    0.00005    -0.28453,   -0.13225     0.40916,    0.16731
   9       0.03128,    0.00267     0.03076,   -0.03646     0.01261,    0.07238    -0.05607,    0.02021    -0.02288,    0.41602     0.00933,   -0.42170
  10       0.02771,   -0.01366    -0.08628,   -0.01303    -0.06673,   -0.01497    -0.04837,    0.04743     0.43445,    0.02357    -0.37392,   -0.04365

                     7                       8                       9                      10  
       ----------------------- ----------------------- ----------------------- -----------------------
   1      -0.02514,    0.01643     0.03098,   -0.02064     0.00031,    0.02760    -0.02100,    0.02687
   2       0.01042,    0.02125    -0.02669,   -0.05198    -0.01424,   -0.01847    -0.02640,    0.01047
   3      -0.01292,    0.06002    -0.03640,   -0.04794    -0.00679,    0.02410     0.04738,   -0.00273
   4       0.05516,   -0.01858    -0.04697,    0.05371    -0.01055,   -0.01518    -0.03469,    0.03955
   5       0.32307,    0.36153     0.39844,    0.46476     0.19410,    0.22366    -0.03882,    0.01987
   6      -0.00639,    0.01910     0.18004,    0.18090     0.41475,    0.36557     0.38408,    0.34892
   7       0.42036,   -0.36276     0.14261,   -0.16092    -0.22726,    0.19059    -0.34421,    0.29194
   8       0.43783,    0.12606    -0.25842,   -0.10434    -0.25991,   -0.06801     0.55362,    0.17651
   9      -0.00619,   -0.00386    -0.06471,    0.29138    -0.03311,   -0.60542     0.02521,    0.42292
  10       0.48702,    0.05269    -0.57746,   -0.01188     0.27373,    0.04074    -0.01466,   -0.02784

                     WFN1 Final Alpha Natural Orbital Analysis
                     -----------------------------------------

 Vector    1  Occ=7.659832D-01  E= 0.000000D+00
              MO Center= -5.5D-07,  5.5D-06, -4.8D-05, r^2= 2.4D+00
   Bfn.  Coefficient  Atom+Function         Bfn.  Coefficient  Atom+Function  
  ----- ------------  ---------------      ----- ------------  ---------------
     2      0.504975  1 H  s                  7      0.504955  2 H  s          
     1      0.222426  1 H  s                  6      0.222416  2 H  s          

 Vector    2  Occ=2.216205D-01  E= 0.000000D+00
              MO Center= -9.3D-06, -2.7D-05,  4.8D-05, r^2= 2.6D+00
   Bfn.  Coefficient  Atom+Function         Bfn.  Coefficient  Atom+Function  
  ----- ------------  ---------------      ----- ------------  ---------------
     2      0.529948  1 H  s                  7     -0.529985  2 H  s          
     1      0.279402  1 H  s                  6     -0.279387  2 H  s          

 Vector    3  Occ=3.845218D-03  E= 0.000000D+00
              MO Center=  4.5D-04,  2.4D-04,  3.8D-04, r^2= 2.5D+00
   Bfn.  Coefficient  Atom+Function         Bfn.  Coefficient  Atom+Function  
  ----- ------------  ---------------      ----- ------------  ---------------
     1     -0.893510  1 H  s                  6     -0.893583  2 H  s          
     2      0.690843  1 H  s                  7      0.690921  2 H  s          
    10     -0.028938  2 H  pz                 5      0.027924  1 H  pz         

 Vector    4  Occ=2.618251D-03  E= 0.000000D+00
              MO Center=  2.2D-04,  6.4D-04, -2.5D-04, r^2= 3.1D+00
   Bfn.  Coefficient  Atom+Function         Bfn.  Coefficient  Atom+Function  
  ----- ------------  ---------------      ----- ------------  ---------------
     1     -0.922157  1 H  s                  6      0.922232  2 H  s          
     2      0.905464  1 H  s                  7     -0.905510  2 H  s          
     5     -0.039796  1 H  pz                10     -0.039275  2 H  pz         

 Vector    5  Occ=1.006013D-03  E= 0.000000D+00
              MO Center= -2.8D-04,  8.4D-05,  3.6D-05, r^2= 1.9D+00
   Bfn.  Coefficient  Atom+Function         Bfn.  Coefficient  Atom+Function  
  ----- ------------  ---------------      ----- ------------  ---------------
     8      0.666275  2 H  px                 3      0.659740  1 H  px         
     4     -0.253038  1 H  py                 9     -0.233353  2 H  py         
    10      0.039428  2 H  pz                 5     -0.026064  1 H  pz         

 Vector    6  Occ=9.910128D-04  E= 0.000000D+00
              MO Center= -1.7D-04, -2.7D-04, -8.8D-05, r^2= 1.9D+00
   Bfn.  Coefficient  Atom+Function         Bfn.  Coefficient  Atom+Function  
  ----- ------------  ---------------      ----- ------------  ---------------
     9      0.669851  2 H  py                 4      0.656065  1 H  py         
     3      0.259300  1 H  px                 8      0.225925  2 H  px         
     5     -0.046093  1 H  pz         

 Vector    7  Occ=1.031345D-03  E= 0.000000D+00
              MO Center= -2.4D-04, -6.2D-04,  9.3D-05, r^2= 1.9D+00
   Bfn.  Coefficient  Atom+Function         Bfn.  Coefficient  Atom+Function  
  ----- ------------  ---------------      ----- ------------  ---------------
     9     -0.666973  2 H  py                 4      0.660116  1 H  py         
     3      0.253348  1 H  px                 8     -0.231039  2 H  px         
    10     -0.042445  2 H  pz         

 Vector    8  Occ=9.647229D-04  E= 0.000000D+00
              MO Center=  2.9D-05, -5.4D-05, -1.4D-04, r^2= 1.9D+00
   Bfn.  Coefficient  Atom+Function         Bfn.  Coefficient  Atom+Function  
  ----- ------------  ---------------      ----- ------------  ---------------
     8     -0.669487  2 H  px                 3      0.657095  1 H  px         
     4     -0.260638  1 H  py                 9      0.225384  2 H  py         
    10     -0.030986  2 H  pz         

 Vector    9  Occ=9.853303D-04  E= 0.000000D+00
              MO Center= -3.9D-05, -6.4D-06, -9.8D-05, r^2= 1.9D+00
   Bfn.  Coefficient  Atom+Function         Bfn.  Coefficient  Atom+Function  
  ----- ------------  ---------------      ----- ------------  ---------------
     5     -0.706475  1 H  pz                10      0.704396  2 H  pz         
     7      0.060621  2 H  s                  2      0.059722  1 H  s          
     6     -0.054215  2 H  s                  1     -0.053339  1 H  s          
     8     -0.052101  2 H  px                 9     -0.027106  2 H  py         

 Vector   10  Occ=9.544932D-04  E= 0.000000D+00
              MO Center=  5.2D-05,  1.3D-05,  5.9D-05, r^2= 1.9D+00
   Bfn.  Coefficient  Atom+Function         Bfn.  Coefficient  Atom+Function  
  ----- ------------  ---------------      ----- ------------  ---------------
     5      0.704867  1 H  pz                10      0.706018  2 H  pz         
     2      0.096376  1 H  s                  7     -0.095473  2 H  s          
     1     -0.079564  1 H  s                  6      0.078444  2 H  s          
     4      0.035310  1 H  py                 3      0.032291  1 H  px         
     8     -0.026238  2 H  px         


                     WFN1 Final Beta Natural Orbital Analysis
                     ----------------------------------------

 Vector    1  Occ=7.659832D-01  E= 0.000000D+00
              MO Center= -5.5D-07,  5.5D-06, -4.8D-05, r^2= 2.4D+00
   Bfn.  Coefficient  Atom+Function         Bfn.  Coefficient  Atom+Function  
  ----- ------------  ---------------      ----- ------------  ---------------
     2      0.504975  1 H  s                  7      0.504955  2 H  s          
     1      0.222426  1 H  s                  6      0.222416  2 H  s          

 Vector    2  Occ=2.216205D-01  E= 0.000000D+00
              MO Center= -9.3D-06, -2.7D-05,  4.8D-05, r^2= 2.6D+00
   Bfn.  Coefficient  Atom+Function         Bfn.  Coefficient  Atom+Function  
  ----- ------------  ---------------      ----- ------------  ---------------
     2      0.529948  1 H  s                  7     -0.529985  2 H  s          
     1      0.279402  1 H  s                  6     -0.279387  2 H  s          

 Vector    3  Occ=3.845218D-03  E= 0.000000D+00
              MO Center=  4.5D-04,  2.4D-04,  3.8D-04, r^2= 2.5D+00
   Bfn.  Coefficient  Atom+Function         Bfn.  Coefficient  Atom+Function  
  ----- ------------  ---------------      ----- ------------  ---------------
     1     -0.893510  1 H  s                  6     -0.893583  2 H  s          
     2      0.690843  1 H  s                  7      0.690921  2 H  s          
    10     -0.028938  2 H  pz                 5      0.027924  1 H  pz         

 Vector    4  Occ=2.618251D-03  E= 0.000000D+00
              MO Center=  2.2D-04,  6.4D-04, -2.5D-04, r^2= 3.1D+00
   Bfn.  Coefficient  Atom+Function         Bfn.  Coefficient  Atom+Function  
  ----- ------------  ---------------      ----- ------------  ---------------
     1     -0.922157  1 H  s                  6      0.922232  2 H  s          
     2      0.905464  1 H  s                  7     -0.905510  2 H  s          
     5     -0.039796  1 H  pz                10     -0.039275  2 H  pz         

 Vector    5  Occ=1.006013D-03  E= 0.000000D+00
              MO Center= -2.8D-04,  8.4D-05,  3.6D-05, r^2= 1.9D+00
   Bfn.  Coefficient  Atom+Function         Bfn.  Coefficient  Atom+Function  
  ----- ------------  ---------------      ----- ------------  ---------------
     8      0.666275  2 H  px                 3      0.659740  1 H  px         
     4     -0.253038  1 H  py                 9     -0.233353  2 H  py         
    10      0.039428  2 H  pz                 5     -0.026064  1 H  pz         

 Vector    6  Occ=9.910128D-04  E= 0.000000D+00
              MO Center= -1.7D-04, -2.7D-04, -8.8D-05, r^2= 1.9D+00
   Bfn.  Coefficient  Atom+Function         Bfn.  Coefficient  Atom+Function  
  ----- ------------  ---------------      ----- ------------  ---------------
     9      0.669851  2 H  py                 4      0.656065  1 H  py         
     3      0.259300  1 H  px                 8      0.225925  2 H  px         
     5     -0.046093  1 H  pz         

 Vector    7  Occ=1.031345D-03  E= 0.000000D+00
              MO Center= -2.4D-04, -6.2D-04,  9.3D-05, r^2= 1.9D+00
   Bfn.  Coefficient  Atom+Function         Bfn.  Coefficient  Atom+Function  
  ----- ------------  ---------------      ----- ------------  ---------------
     9     -0.666973  2 H  py                 4      0.660116  1 H  py         
     3      0.253348  1 H  px                 8     -0.231039  2 H  px         
    10     -0.042445  2 H  pz         

 Vector    8  Occ=9.647229D-04  E= 0.000000D+00
              MO Center=  2.9D-05, -5.4D-05, -1.4D-04, r^2= 1.9D+00
   Bfn.  Coefficient  Atom+Function         Bfn.  Coefficient  Atom+Function  
  ----- ------------  ---------------      ----- ------------  ---------------
     8     -0.669487  2 H  px                 3      0.657095  1 H  px         
     4     -0.260638  1 H  py                 9      0.225384  2 H  py         
    10     -0.030986  2 H  pz         

 Vector    9  Occ=9.853303D-04  E= 0.000000D+00
              MO Center= -3.9D-05, -6.4D-06, -9.8D-05, r^2= 1.9D+00
   Bfn.  Coefficient  Atom+Function         Bfn.  Coefficient  Atom+Function  
  ----- ------------  ---------------      ----- ------------  ---------------
     5     -0.706475  1 H  pz                10      0.704396  2 H  pz         
     7      0.060621  2 H  s                  2      0.059722  1 H  s          
     6     -0.054215  2 H  s                  1     -0.053339  1 H  s          
     8     -0.052101  2 H  px                 9     -0.027106  2 H  py         

 Vector   10  Occ=9.544932D-04  E= 0.000000D+00
              MO Center=  5.2D-05,  1.3D-05,  5.9D-05, r^2= 1.9D+00
   Bfn.  Coefficient  Atom+Function         Bfn.  Coefficient  Atom+Function  
  ----- ------------  ---------------      ----- ------------  ---------------
     5      0.704867  1 H  pz                10      0.706018  2 H  pz         
     2      0.096376  1 H  s                  7     -0.095473  2 H  s          
     1     -0.079564  1 H  s                  6      0.078444  2 H  s          
     4      0.035310  1 H  py                 3      0.032291  1 H  px         
     8     -0.026238  2 H  px         


 Task  times  cpu:     3019.6s     wall:     3514.2s
 Summary of allocated global arrays
-----------------------------------
  No active global arrays



                         GA Statistics for process    0
                         ------------------------------

       create   destroy   get      put      acc     scatter   gather  read&inc
calls:   44       44     1.09e+09 4.69e+05 6.23e+05    0        0       11     
number of processes/call 1.00e+00 1.00e+00 1.00e+00 0.00e+00 0.00e+00
bytes total:             8.75e+11 4.99e+08 6.23e+08 0.00e+00 0.00e+00 8.80e+01
bytes remote:            0.00e+00 0.00e+00 0.00e+00 0.00e+00 0.00e+00 0.00e+00
Max memory consumed for GA by this process: 268000 bytes
MA_summarize_allocated_blocks: starting scan ...
MA_summarize_allocated_blocks: scan completed: 0 heap blocks, 0 stack blocks
MA usage statistics:

	allocation statistics:
					      heap	     stack
					      ----	     -----
	current number of blocks	         0	         0
	maximum number of blocks	        19	        17
	current total bytes		         0	         0
	maximum total bytes		   3205432	  22508664
	maximum total K-bytes		      3206	     22509
	maximum total M-bytes		         4	        23


                                NWChem Input Module
                                -------------------





                                     CITATION
                                     --------
                Please cite the following reference when publishing
                           results obtained with NWChem:

                 M. Valiev, E.J. Bylaska, N. Govind, K. Kowalski,
              T.P. Straatsma, H.J.J. van Dam, D. Wang, J. Nieplocha,
                        E. Apra, T.L. Windus, W.A. de Jong
                 "NWChem: a comprehensive and scalable open-source
                  solution for large scale molecular simulations"
                      Comput. Phys. Commun. 181, 1477 (2010)
                           doi:10.1016/j.cpc.2010.04.018

                                      AUTHORS
                                      -------
          E. Apra, E. J. Bylaska, W. A. de Jong, N. Govind, K. Kowalski,
       T. P. Straatsma, M. Valiev, H. J. J. van Dam, D. Wang, T. L. Windus,
        J. Hammond, J. Autschbach, K. Bhaskaran-Nair, J. Brabec, K. Lopata,
    S. A. Fischer, S. Krishnamoorthy, M. Jacquelin, W. Ma, M. Klemm, O. Villa,
      Y. Chen, V. Anisimov, F. Aquino, S. Hirata, M. T. Hackler, V. Konjkov,
      T. Risthaus, M. Malagoli, A. Marenich, A. Otero-de-la-Roza, J. Mullin,
        P. Nichols, R. Peverati, J. Pittner, Y. Zhao, P.-D. Fan, A. Fonari,
       M. Williamson, R. J. Harrison, J. R. Rehr, M. Dupuis, D. Silverstein,
    D. M. A. Smith, J. Nieplocha, V. Tipparaju, M. Krishnan, B. E. Van Kuiken,
        A. Vazquez-Mayagoitia, L. Jensen, M. Swart, Q. Wu, T. Van Voorhis,
     A. A. Auer, M. Nooijen, L. D. Crosby, E. Brown, G. Cisneros, G. I. Fann,
   H. Fruchtl, J. Garza, K. Hirao, R. A. Kendall, J. A. Nichols, K. Tsemekhman,
    K. Wolinski, J. Anchell, D. E. Bernholdt, P. Borowski, T. Clark, D. Clerc,
   H. Dachsel, M. J. O. Deegan, K. Dyall, D. Elwood, E. Glendening, M. Gutowski,
   A. C. Hess, J. Jaffe, B. G. Johnson, J. Ju, R. Kobayashi, R. Kutteh, Z. Lin,
   R. Littlefield, X. Long, B. Meng, T. Nakajima, S. Niu, L. Pollack, M. Rosing,
   K. Glaesemann, G. Sandrone, M. Stave, H. Taylor, G. Thomas, J. H. van Lenthe,
                               A. T. Wong, Z. Zhang.

 Total times  cpu:     3019.6s     wall:     3514.2s
