 argument  1 = input-wf.nw



============================== echo of input deck ==============================
echo
start wfn1_dat
geometry units au noautoz
  H 0 0 -1.29434600000000000000
  H 0 0  1.29434600000000000000
  symmetry cs
end
basis
  H library 6-31g**
end
set wfn1:input_vectors "atomic"
set wfn1:solver "monte-carlo"
set wfn1:print_error F
set wfn1:t_initial 0.1
#set wfn1:corr_expr "wfn1_mx"
set wfn1:corr_expr "wfn1c"
set wfn1:t_bath 0.0
set wfn1:maxit  20000
task wfn1 energy
================================================================================


                                         
                                         


              Northwest Computational Chemistry Package (NWChem) 6.8
              ------------------------------------------------------


                    Environmental Molecular Sciences Laboratory
                       Pacific Northwest National Laboratory
                                Richland, WA 99352

                              Copyright (c) 1994-2015
                       Pacific Northwest National Laboratory
                            Battelle Memorial Institute

             NWChem is an open-source computational chemistry package
                        distributed under the terms of the
                      Educational Community License (ECL) 2.0
             A copy of the license is included with this distribution
                              in the LICENSE.TXT file

                                  ACKNOWLEDGMENT
                                  --------------

            This software and its documentation were developed at the
            EMSL at Pacific Northwest National Laboratory, a multiprogram
            national laboratory, operated for the U.S. Department of Energy
            by Battelle under Contract Number DE-AC05-76RL01830. Support
            for this work was provided by the Department of Energy Office
            of Biological and Environmental Research, Office of Basic
            Energy Sciences, and the Office of Advanced Scientific Computing.


           Job information
           ---------------

    hostname        = erato
    program         = ../../../bin/LINUX64/nwchem
    date            = Mon Mar  1 13:02:40 2021

    compiled        = Sun_Feb_28_18:02:42_2021
    source          = /home/hvandam/nwchem-1-wfn1
    nwchem branch   = Development
    nwchem revision = nwchem_on_git-124-gad72d19fff205e319ffbbf2bca37a04ded6ad57b
    ga revision     = nwchem_on_git-124-gad72d19
    use scalapack   = F
    input           = input-wf.nw
    prefix          = wfn1_dat.
    data base       = ./wfn1_dat.db
    status          = startup
    nproc           =        1
    time left       =     -1s



           Memory information
           ------------------

    heap     =   13107198 doubles =    100.0 Mbytes
    stack    =   13107195 doubles =    100.0 Mbytes
    global   =   26214400 doubles =    200.0 Mbytes (distinct from heap & stack)
    total    =   52428793 doubles =    400.0 Mbytes
    verify   = yes
    hardfail = no 


           Directory information
           ---------------------

  0 permanent = .
  0 scratch   = .




                                NWChem Input Module
                                -------------------


 Turning off AUTOSYM since
 SYMMETRY directive was detected!



                             Geometry "geometry" -> ""
                             -------------------------

 Output coordinates in a.u. (scale by  1.000000000 to convert to a.u.)

  No.       Tag          Charge          X              Y              Z
 ---- ---------------- ---------- -------------- -------------- --------------
    1 H                    1.0000     0.00000000     0.00000000    -1.29434600
    2 H                    1.0000     0.00000000     0.00000000     1.29434600

      Atomic Mass 
      ----------- 

      H                  1.007825


 Effective nuclear repulsion energy (a.u.)       0.3862954728

            Nuclear Dipole moment (a.u.) 
            ----------------------------
        X                 Y               Z
 ---------------- ---------------- ----------------
     0.0000000000     0.0000000000     0.0000000000

      Symmetry information
      --------------------

 Group name             Cs        
 Group number              2
 Group order               2
 No. of unique centers     1

      Symmetry unique atoms

     1


            XYZ format geometry
            -------------------
     2
 geometry
 H                     0.00000000     0.00000000    -0.68493846
 H                     0.00000000     0.00000000     0.68493846

                      Basis "ao basis" -> "" (cartesian)
                      -----
  H (Hydrogen)
  ------------
            Exponent  Coefficients 
       -------------- ---------------------------------------------------------
  1 S  1.87311370E+01  0.033495
  1 S  2.82539370E+00  0.234727
  1 S  6.40121700E-01  0.813757

  2 S  1.61277800E-01  1.000000

  3 P  1.10000000E+00  1.000000



 Summary of "ao basis" -> "" (cartesian)
 ------------------------------------------------------------------------------
       Tag                 Description            Shells   Functions and Types
 ---------------- ------------------------------  ------  ---------------------
 H                          6-31g**                  3        5   2s1p



                                NWChem WFN1 Module
                                ------------------



          No. of electrons :     2
           Alpha electrons :     1
            Beta electrons :     1
          Charge           :     0
          Spin multiplicity:     1

 HvD: wfn1_inpdft
 HvD: nquad_task =                     1
 HvD: iangquad   =                     0
 HvD: gridtype   = user      
 HvD: leb        =  T
 HvD: radgrid    = murakn    
 HvD: trunc_neigh=  T
 HvD: lssw       =  T
 HvD: whichssw   = erf1    
 HvD: mxnrad     =                     0
 HvD: mxnang     =                     0
 HVD: wfn1: movecs_in  = atomic                                                                                                                                                                                                                                                          
 HVD: wfn1: movecs_out = ./wfn1_dat.movecs                                                                                                                                                                                                                                               

      Superposition of Atomic Density Guess
      -------------------------------------

 Sum of atomic energies:          -0.99646508

      Non-variational initial energy
      ------------------------------

 Total energy =      -0.742054
 1-e energy   =      -1.755921
 2-e energy   =       0.627572
 HOMO         =      -0.365808
 LUMO         =       0.001683

 iteration              energy           error
 ---------              ------           -----
         0         -1.02150260        0.200000
         1         -1.02399201        0.200000
         2         -1.02528635        0.200000
         3         -1.02550556        0.200000
         4         -1.02598034        0.200000
         5         -1.02644314        0.200000
         6         -1.02760521        0.200000
         7         -1.02790868        0.200000
         8         -1.02864821        0.200000
         9         -1.02969826        0.200000
        10         -1.02973383        0.200000
        11         -1.03013572        0.158740
        12         -1.03031315        0.146973
        13         -1.03034896        0.136079
        14         -1.03049250        0.136079
        15         -1.03062176        0.125992
        16         -1.03078378        0.125992
        17         -1.03099378        0.116653
        18         -1.03104009        0.116653
        19         -1.03109639        0.108006
        20         -1.03115567        0.108006
        21         -1.03124818        0.092587
        22         -1.03145316        0.085724
        23         -1.03153316        0.073487
        24         -1.03156504        0.073487
        25         -1.03156554        0.073487
        26         -1.03157225        0.068040
        27         -1.03158333        0.062996
        28         -1.03168594        0.058326
        29         -1.03168668        0.058326
        30         -1.03171719        0.046294
        31         -1.03171908        0.042862
        32         -1.03173098        0.042862
        33         -1.03173465        0.042862
        34         -1.03174257        0.042862
        35         -1.03175251        0.036743
        36         -1.03176882        0.036743
        37         -1.03177540        0.036743
        38         -1.03180300        0.036743
        39         -1.03181261        0.034020
        40         -1.03182678        0.031498
        41         -1.03183235        0.029163
        42         -1.03184865        0.029163
        43         -1.03184964        0.029163
        44         -1.03185629        0.029163
        45         -1.03186901        0.029163
        46         -1.03187912        0.018372
        47         -1.03188558        0.018372
        48         -1.03188878        0.018372
        49         -1.03188909        0.018372
        50         -1.03188985        0.015749
        51         -1.03189508        0.015749
        52         -1.03190195        0.015749
        53         -1.03190813        0.015749
        54         -1.03191387        0.014582
        55         -1.03191636        0.013501
        56         -1.03192032        0.013501
        57         -1.03192294        0.013501
        58         -1.03192945        0.013501
        59         -1.03193750        0.013501
        60         -1.03194067        0.012500
        61         -1.03194104        0.012500
        62         -1.03194353        0.011573
        63         -1.03194669        0.011573
        64         -1.03194846        0.010716
        65         -1.03194977        0.010716
        66         -1.03195747        0.010716
        67         -1.03196785        0.010716
        68         -1.03196947        0.010716
        69         -1.03197653        0.010716
        70         -1.03198098        0.010716
        71         -1.03198280        0.010716
        72         -1.03198447        0.010716
        73         -1.03198574        0.010716
        74         -1.03198757        0.010716
        75         -1.03198938        0.010716
        76         -1.03200003        0.010716
        77         -1.03200048        0.010716
        78         -1.03200166        0.010716
        79         -1.03200682        0.010716
        80         -1.03201030        0.010716
        81         -1.03201239        0.010716
        82         -1.03201340        0.010716
        83         -1.03201732        0.009921
        84         -1.03201921        0.009921
        85         -1.03201960        0.009921
        86         -1.03202334        0.009921
        87         -1.03202608        0.009921
        88         -1.03202729        0.009921
        89         -1.03202828        0.009921
        90         -1.03203095        0.009921
        91         -1.03203298        0.009921
        92         -1.03203396        0.009921
        93         -1.03203519        0.009921
        94         -1.03203977        0.009921
        95         -1.03204603        0.009921
        96         -1.03204896        0.009921
        97         -1.03205187        0.009921
        98         -1.03205342        0.009921
        99         -1.03205550        0.009921
       100         -1.03205754        0.009921
       101         -1.03205890        0.009921
       102         -1.03206777        0.009921
       103         -1.03206828        0.009921
       104         -1.03206872        0.009921
       105         -1.03207195        0.009921
       106         -1.03207552        0.009921
       107         -1.03207659        0.009921
       108         -1.03207663        0.009921
       109         -1.03207915        0.009921
       110         -1.03207968        0.009921
       111         -1.03208070        0.009921
       112         -1.03208406        0.009921
       113         -1.03208905        0.009921
       114         -1.03209240        0.009921
       115         -1.03209842        0.009921
       116         -1.03210040        0.009921
       117         -1.03210144        0.009921
       118         -1.03210150        0.009921
       119         -1.03210179        0.009921
       120         -1.03210361        0.009921
       121         -1.03210819        0.009921
       122         -1.03211062        0.009921
       123         -1.03211265        0.009921
       124         -1.03211285        0.009186
       125         -1.03211323        0.009186
       126         -1.03211726        0.009186
       127         -1.03211729        0.009186
       128         -1.03211961        0.009186
       129         -1.03212168        0.009186
       130         -1.03212471        0.009186
       131         -1.03212717        0.009186
       132         -1.03212734        0.009186
       133         -1.03212942        0.009186
       134         -1.03213274        0.009186
       135         -1.03213473        0.009186
       136         -1.03213755        0.009186
       137         -1.03213896        0.009186
       138         -1.03213974        0.009186
       139         -1.03214123        0.009186
       140         -1.03214584        0.009186
       141         -1.03214603        0.008505
       142         -1.03214710        0.008505
       143         -1.03214717        0.008505
       144         -1.03215030        0.007875
       145         -1.03215036        0.007875
       146         -1.03215083        0.007875
       147         -1.03215305        0.007875
       148         -1.03215352        0.007875
       149         -1.03215487        0.007875
       150         -1.03215882        0.007875
       151         -1.03215912        0.007875
       152         -1.03216215        0.007875
       153         -1.03216664        0.007875
       154         -1.03217074        0.007875
       155         -1.03217170        0.007875
       156         -1.03217357        0.007875
       157         -1.03217957        0.007875
       158         -1.03218097        0.007875
       159         -1.03218322        0.007875
       160         -1.03218466        0.007875
       161         -1.03218560        0.007875
       162         -1.03218996        0.007875
       163         -1.03219157        0.007875
       164         -1.03219178        0.007875
       165         -1.03219316        0.007875
       166         -1.03219784        0.007875
       167         -1.03219788        0.007875
       168         -1.03219826        0.007875
       169         -1.03220051        0.007875
       170         -1.03220262        0.007875
       171         -1.03220316        0.007875
       172         -1.03220360        0.007875
       173         -1.03220426        0.007875
       174         -1.03220942        0.007875
       175         -1.03221382        0.007875
       176         -1.03221822        0.007875
       177         -1.03222097        0.007875
       178         -1.03222495        0.007875
       179         -1.03222667        0.007875
       180         -1.03222787        0.007875
       181         -1.03222909        0.007875
       182         -1.03222922        0.007875
       183         -1.03223049        0.007875
       184         -1.03223177        0.007875
       185         -1.03223257        0.007875
       186         -1.03223335        0.007875
       187         -1.03223449        0.007875
       188         -1.03223497        0.007875
       189         -1.03223543        0.007875
       190         -1.03223994        0.007875
       191         -1.03224294        0.007875
       192         -1.03224627        0.007875
       193         -1.03224751        0.007875
       194         -1.03224993        0.007875
       195         -1.03225011        0.007875
       196         -1.03225179        0.007875
       197         -1.03225554        0.007875
       198         -1.03225653        0.007875
       199         -1.03225692        0.007875
       200         -1.03225706        0.007875
       201         -1.03225838        0.007875
       202         -1.03226192        0.007875
       203         -1.03226287        0.007875
       204         -1.03226581        0.007875
       205         -1.03226605        0.007875
       206         -1.03226662        0.007875
       207         -1.03226821        0.007875
       208         -1.03227111        0.007875
       209         -1.03227559        0.007875
       210         -1.03227916        0.007875
       211         -1.03228009        0.007875
       212         -1.03228046        0.007875
       213         -1.03228184        0.007875
       214         -1.03228294        0.007875
       215         -1.03228497        0.007875
       216         -1.03228534        0.007875
       217         -1.03228775        0.007875
       218         -1.03228954        0.007875
       219         -1.03229360        0.007875
       220         -1.03229450        0.007291
       221         -1.03229615        0.007291
       222         -1.03229966        0.007291
       223         -1.03230073        0.007291
       224         -1.03230186        0.007291
       225         -1.03230187        0.007291
       226         -1.03230192        0.007291
       227         -1.03230342        0.007291
       228         -1.03230381        0.007291
       229         -1.03230408        0.007291
       230         -1.03230485        0.007291
       231         -1.03230507        0.007291
       232         -1.03230597        0.006750
       233         -1.03230974        0.006750
       234         -1.03231349        0.006750
       235         -1.03231476        0.006750
       236         -1.03231544        0.006750
       237         -1.03231753        0.006250
       238         -1.03231984        0.006250
       239         -1.03232033        0.006250
       240         -1.03232178        0.006250
       241         -1.03232375        0.006250
       242         -1.03232508        0.006250
       243         -1.03232591        0.006250
       244         -1.03232878        0.006250
       245         -1.03233093        0.006250
       246         -1.03233211        0.006250
       247         -1.03233266        0.006250
       248         -1.03233335        0.006250
       249         -1.03233497        0.006250
       250         -1.03233520        0.006250
       251         -1.03233665        0.006250
       252         -1.03233792        0.006250
       253         -1.03233868        0.006250
       254         -1.03234020        0.005787
       255         -1.03234031        0.005787
       256         -1.03234142        0.005787
       257         -1.03234293        0.005787
       258         -1.03234329        0.005787
       259         -1.03234411        0.005787
       260         -1.03234519        0.005787
       261         -1.03234684        0.005787
       262         -1.03234755        0.005787
       263         -1.03234790        0.005787
       264         -1.03234997        0.005787
       265         -1.03235337        0.005787
       266         -1.03235374        0.005787
       267         -1.03235509        0.005787
       268         -1.03235598        0.005787
       269         -1.03235677        0.005787
       270         -1.03235688        0.005787
       271         -1.03235834        0.005787
       272         -1.03236022        0.005787
       273         -1.03236190        0.005787
       274         -1.03236237        0.005787
       275         -1.03236386        0.005787
       276         -1.03236470        0.005787
       277         -1.03236544        0.005787
       278         -1.03236715        0.005787
       279         -1.03236976        0.005787
       280         -1.03237079        0.005787
       281         -1.03237140        0.005787
       282         -1.03237156        0.005787
       283         -1.03237299        0.005787
       284         -1.03237449        0.005787
       285         -1.03237581        0.005787
       286         -1.03237609        0.005787
       287         -1.03238045        0.005787
       288         -1.03238068        0.005787
       289         -1.03238169        0.005787
       290         -1.03238231        0.005787
       291         -1.03238381        0.005787
       292         -1.03238457        0.005787
       293         -1.03238517        0.005787
       294         -1.03238530        0.005787
       295         -1.03238576        0.005787
       296         -1.03238944        0.005787
       297         -1.03239002        0.005787
       298         -1.03239020        0.005787
       299         -1.03239046        0.005787
       300         -1.03239071        0.005787
       301         -1.03239169        0.005787
       302         -1.03239270        0.005787
       303         -1.03239337        0.005787
       304         -1.03239371        0.005787
       305         -1.03239468        0.005787
       306         -1.03239477        0.005787
       307         -1.03239540        0.005787
       308         -1.03239632        0.005787
       309         -1.03239777        0.005787
       310         -1.03239942        0.005787
       311         -1.03240096        0.005787
       312         -1.03240100        0.005787
       313         -1.03240323        0.005787
       314         -1.03240366        0.005787
       315         -1.03240462        0.005787
       316         -1.03240489        0.005787
       317         -1.03240606        0.005787
       318         -1.03240664        0.005787
       319         -1.03240762        0.005787
       320         -1.03240773        0.005787
       321         -1.03240817        0.005787
       322         -1.03241082        0.005787
       323         -1.03241231        0.005787
       324         -1.03241375        0.005787
       325         -1.03241484        0.005787
       326         -1.03241499        0.005787
       327         -1.03241576        0.005787
       328         -1.03241879        0.005787
       329         -1.03242072        0.005787
       330         -1.03242111        0.005787
       331         -1.03242208        0.005787
       332         -1.03242597        0.005787
       333         -1.03242695        0.005787
       334         -1.03242819        0.005787
       335         -1.03242891        0.005787
       336         -1.03242907        0.005787
       337         -1.03242928        0.005787
       338         -1.03242931        0.005787
       339         -1.03242971        0.005787
       340         -1.03243134        0.005787
       341         -1.03243199        0.005787
       342         -1.03243286        0.005787
       343         -1.03243289        0.005787
       344         -1.03243318        0.005787
       345         -1.03243345        0.005787
       346         -1.03243448        0.005787
       347         -1.03243631        0.005787
       348         -1.03243647        0.005787
       349         -1.03243664        0.005787
       350         -1.03243852        0.005787
       351         -1.03244243        0.005787
       352         -1.03244269        0.005787
       353         -1.03244313        0.005787
       354         -1.03244417        0.005787
       355         -1.03244462        0.005358
       356         -1.03244619        0.005358
       357         -1.03244637        0.005358
       358         -1.03244660        0.005358
       359         -1.03244671        0.005358
       360         -1.03244781        0.005358
       361         -1.03244946        0.005358
       362         -1.03244988        0.005358
       363         -1.03244998        0.005358
       364         -1.03245003        0.005358
       365         -1.03245021        0.005358
       366         -1.03245046        0.005358
       367         -1.03245047        0.005358
       368         -1.03245070        0.005358
       369         -1.03245155        0.005358
       370         -1.03245175        0.005358
       371         -1.03245219        0.005358
       372         -1.03245427        0.005358
       373         -1.03245496        0.005358
       374         -1.03245562        0.005358
       375         -1.03245674        0.005358
       376         -1.03245738        0.005358
       377         -1.03245846        0.005358
       378         -1.03245863        0.005358
       379         -1.03245880        0.005358
       380         -1.03245885        0.005358
       381         -1.03245916        0.005358
       382         -1.03245935        0.005358
       383         -1.03245938        0.005358
       384         -1.03246060        0.005358
       385         -1.03246101        0.005358
       386         -1.03246119        0.005358
       387         -1.03246215        0.005358
       388         -1.03246331        0.005358
       389         -1.03246599        0.005358
       390         -1.03246620        0.005358
       391         -1.03246729        0.005358
       392         -1.03246772        0.005358
       393         -1.03246821        0.005358
       394         -1.03247073        0.005358
       395         -1.03247183        0.005358
       396         -1.03247278        0.005358
       397         -1.03247305        0.005358
       398         -1.03247308        0.005358
       399         -1.03247314        0.005358
       400         -1.03247399        0.005358
       401         -1.03247407        0.005358
       402         -1.03247633        0.005358
       403         -1.03247663        0.005358
       404         -1.03247792        0.005358
       405         -1.03247823        0.005358
       406         -1.03247947        0.005358
       407         -1.03247960        0.005358
       408         -1.03248097        0.005358
       409         -1.03248176        0.005358
       410         -1.03248233        0.005358
       411         -1.03248297        0.005358
       412         -1.03248329        0.005358
       413         -1.03248353        0.005358
       414         -1.03248464        0.005358
       415         -1.03248755        0.004961
       416         -1.03248788        0.004961
       417         -1.03248794        0.004961
       418         -1.03248851        0.004961
       419         -1.03248900        0.004961
       420         -1.03248935        0.004961
       421         -1.03248940        0.004961
       422         -1.03248950        0.004961
       423         -1.03248999        0.004961
       424         -1.03249066        0.004961
       425         -1.03249096        0.004961
       426         -1.03249105        0.004961
       427         -1.03249130        0.004961
       428         -1.03249255        0.004961
       429         -1.03249511        0.004961
       430         -1.03249576        0.004961
       431         -1.03249817        0.004961
       432         -1.03249935        0.004961
       433         -1.03250002        0.004961
       434         -1.03250082        0.004961
       435         -1.03250108        0.004961
       436         -1.03250122        0.004961
       437         -1.03250137        0.004961
       438         -1.03250144        0.004961
       439         -1.03250158        0.004961
       440         -1.03250399        0.004961
       441         -1.03250464        0.004961
       442         -1.03250468        0.004961
       443         -1.03250536        0.004961
       444         -1.03250563        0.004961
       445         -1.03250639        0.004961
       446         -1.03250686        0.004961
       447         -1.03250801        0.004961
       448         -1.03250860        0.004961
       449         -1.03250872        0.004961
       450         -1.03251050        0.004961
       451         -1.03251090        0.004961
       452         -1.03251154        0.004961
       453         -1.03251196        0.004961
       454         -1.03251404        0.004961
       455         -1.03251606        0.004961
       456         -1.03251671        0.004961
       457         -1.03251677        0.004961
       458         -1.03251774        0.004961
       459         -1.03251787        0.004593
       460         -1.03251864        0.004593
       461         -1.03252011        0.004593
       462         -1.03252059        0.004593
       463         -1.03252100        0.004593
       464         -1.03252150        0.004593
       465         -1.03252181        0.004593
       466         -1.03252185        0.004593
       467         -1.03252195        0.004593
       468         -1.03252243        0.004593
       469         -1.03252243        0.004593
       470         -1.03252355        0.004593
       471         -1.03252472        0.004593
       472         -1.03252522        0.004593
       473         -1.03252615        0.004593
       474         -1.03252671        0.004593
       475         -1.03252801        0.004593
       476         -1.03252830        0.004593
       477         -1.03252889        0.004593
       478         -1.03252950        0.004593
       479         -1.03253008        0.004252
       480         -1.03253034        0.004252
       481         -1.03253041        0.004252
       482         -1.03253093        0.004252
       483         -1.03253095        0.004252
       484         -1.03253159        0.004252
       485         -1.03253186        0.004252
       486         -1.03253295        0.004252
       487         -1.03253360        0.004252
       488         -1.03253545        0.004252
       489         -1.03253626        0.004252
       490         -1.03253629        0.004252
       491         -1.03253767        0.004252
       492         -1.03253835        0.004252
       493         -1.03253944        0.004252
       494         -1.03253978        0.004252
       495         -1.03254028        0.004252
       496         -1.03254150        0.004252
       497         -1.03254152        0.004252
       498         -1.03254227        0.004252
       499         -1.03254303        0.004252
       500         -1.03254323        0.004252
       501         -1.03254368        0.004252
       502         -1.03254429        0.004252
       503         -1.03254517        0.004252
       504         -1.03254621        0.004252
       505         -1.03254777        0.004252
       506         -1.03254816        0.004252
       507         -1.03254839        0.004252
       508         -1.03254940        0.004252
       509         -1.03254952        0.004252
       510         -1.03254971        0.004252
       511         -1.03255020        0.004252
       512         -1.03255115        0.004252
       513         -1.03255259        0.004252
       514         -1.03255274        0.004252
       515         -1.03255306        0.004252
       516         -1.03255387        0.004252
       517         -1.03255523        0.004252
       518         -1.03255603        0.004252
       519         -1.03255697        0.004252
       520         -1.03255758        0.004252
       521         -1.03255846        0.004252
       522         -1.03255853        0.004252
       523         -1.03255969        0.004252
       524         -1.03256093        0.004252
       525         -1.03256293        0.004252
       526         -1.03256360        0.004252
       527         -1.03256364        0.004252
       528         -1.03256485        0.004252
       529         -1.03256495        0.004252
       530         -1.03256547        0.004252
       531         -1.03256568        0.004252
       532         -1.03256590        0.004252
       533         -1.03256594        0.004252
       534         -1.03256616        0.004252
       535         -1.03256641        0.004252
       536         -1.03256771        0.004252
       537         -1.03256797        0.004252
       538         -1.03256891        0.004252
       539         -1.03256933        0.004252
       540         -1.03256942        0.004252
       541         -1.03256988        0.004252
       542         -1.03257092        0.004252
       543         -1.03257094        0.004252
       544         -1.03257275        0.004252
       545         -1.03257383        0.004252
       546         -1.03257424        0.004252
       547         -1.03257474        0.004252
       548         -1.03257487        0.004252
       549         -1.03257519        0.004252
       550         -1.03257627        0.004252
       551         -1.03257673        0.004252
       552         -1.03257831        0.004252
       553         -1.03257865        0.004252
       554         -1.03258139        0.004252
       555         -1.03258251        0.004252
       556         -1.03258373        0.004252
       557         -1.03258397        0.004252
       558         -1.03258495        0.004252
       559         -1.03258725        0.004252
       560         -1.03258816        0.004252
       561         -1.03258917        0.004252
       562         -1.03258920        0.004252
       563         -1.03259047        0.004252
       564         -1.03259086        0.004252
       565         -1.03259180        0.004252
       566         -1.03259358        0.004252
       567         -1.03259463        0.004252
       568         -1.03259650        0.004252
       569         -1.03259685        0.004252
       570         -1.03259693        0.004252
       571         -1.03259845        0.004252
       572         -1.03259945        0.004252
       573         -1.03260025        0.004252
       574         -1.03260104        0.004252
       575         -1.03260187        0.004252
       576         -1.03260263        0.004252
       577         -1.03260284        0.004252
       578         -1.03260288        0.004252
       579         -1.03260314        0.004252
       580         -1.03260396        0.004252
       581         -1.03260398        0.004252
       582         -1.03260480        0.004252
       583         -1.03260495        0.004252
       584         -1.03260590        0.004252
       585         -1.03260714        0.004252
       586         -1.03260816        0.004252
       587         -1.03260851        0.004252
       588         -1.03260870        0.003937
       589         -1.03260872        0.003937
       590         -1.03260909        0.003937
       591         -1.03260914        0.003937
       592         -1.03260927        0.003937
       593         -1.03260956        0.003937
       594         -1.03261062        0.003937
       595         -1.03261133        0.003937
       596         -1.03261139        0.003937
       597         -1.03261173        0.003937
       598         -1.03261205        0.003937
       599         -1.03261229        0.003937
       600         -1.03261285        0.003937
       601         -1.03261383        0.003937
       602         -1.03261483        0.003937
       603         -1.03261500        0.003937
       604         -1.03261542        0.003937
       605         -1.03261659        0.003937
       606         -1.03261737        0.003937
       607         -1.03261792        0.003937
       608         -1.03261806        0.003937
       609         -1.03261849        0.003937
       610         -1.03261933        0.003937
       611         -1.03262046        0.003937
       612         -1.03262108        0.003937
       613         -1.03262138        0.003937
       614         -1.03262143        0.003937
       615         -1.03262191        0.003937
       616         -1.03262220        0.003937
       617         -1.03262306        0.003937
       618         -1.03262307        0.003937
       619         -1.03262353        0.003937
       620         -1.03262386        0.003937
       621         -1.03262404        0.003937
       622         -1.03262465        0.003937
       623         -1.03262516        0.003937
       624         -1.03262518        0.003937
       625         -1.03262522        0.003937
       626         -1.03262544        0.003937
       627         -1.03262624        0.003937
       628         -1.03262670        0.003937
       629         -1.03262723        0.003937
       630         -1.03262725        0.003937
       631         -1.03262812        0.003937
       632         -1.03262832        0.003937
       633         -1.03262837        0.003937
       634         -1.03262875        0.003937
       635         -1.03262960        0.003937
       636         -1.03263042        0.003937
       637         -1.03263073        0.003937
       638         -1.03263191        0.003937
       639         -1.03263227        0.003937
       640         -1.03263234        0.003937
       641         -1.03263275        0.003937
       642         -1.03263372        0.003937
       643         -1.03263414        0.003937
       644         -1.03263427        0.003937
       645         -1.03263465        0.003937
       646         -1.03263467        0.003937
       647         -1.03263570        0.003937
       648         -1.03263594        0.003937
       649         -1.03263617        0.003937
       650         -1.03263667        0.003937
       651         -1.03263688        0.003937
       652         -1.03263844        0.003937
       653         -1.03263930        0.003937
       654         -1.03263953        0.003937
       655         -1.03263997        0.003937
       656         -1.03264026        0.003937
       657         -1.03264073        0.003937
       658         -1.03264102        0.003937
       659         -1.03264108        0.003645
       660         -1.03264226        0.003645
       661         -1.03264286        0.003645
       662         -1.03264395        0.003645
       663         -1.03264473        0.003645
       664         -1.03264509        0.003645
       665         -1.03264527        0.003645
       666         -1.03264569        0.003645
       667         -1.03264599        0.003645
       668         -1.03264669        0.003645
       669         -1.03264697        0.003645
       670         -1.03264759        0.003645
       671         -1.03264772        0.003645
       672         -1.03264790        0.003645
       673         -1.03264813        0.003645
       674         -1.03264856        0.003645
       675         -1.03264873        0.003645
       676         -1.03264894        0.003645
       677         -1.03264899        0.003645
       678         -1.03264938        0.003645
       679         -1.03264944        0.003645
       680         -1.03265044        0.003645
       681         -1.03265108        0.003645
       682         -1.03265108        0.003645
       683         -1.03265185        0.003645
       684         -1.03265245        0.003645
       685         -1.03265314        0.003645
       686         -1.03265327        0.003645
       687         -1.03265353        0.003645
       688         -1.03265365        0.003645
       689         -1.03265424        0.003645
       690         -1.03265460        0.003645
       691         -1.03265465        0.003645
       692         -1.03265530        0.003375
       693         -1.03265585        0.003375
       694         -1.03265603        0.003375
       695         -1.03265658        0.003375
       696         -1.03265666        0.003375
       697         -1.03265845        0.003375
       698         -1.03265852        0.003375
       699         -1.03265918        0.003375
       700         -1.03265924        0.003375
       701         -1.03265947        0.003375
       702         -1.03265999        0.003375
       703         -1.03266023        0.003375
       704         -1.03266034        0.003375
       705         -1.03266046        0.003375
       706         -1.03266101        0.003375
       707         -1.03266103        0.003375
       708         -1.03266107        0.003375
       709         -1.03266131        0.003375
       710         -1.03266253        0.003375
       711         -1.03266282        0.003375
       712         -1.03266324        0.003375
       713         -1.03266404        0.003375
       714         -1.03266437        0.003375
       715         -1.03266473        0.003375
       716         -1.03266526        0.003375
       717         -1.03266541        0.003375
       718         -1.03266542        0.003375
       719         -1.03266542        0.003375
       720         -1.03266641        0.003375
       721         -1.03266718        0.003375
       722         -1.03266735        0.003375
       723         -1.03266775        0.003375
       724         -1.03266807        0.003375
       725         -1.03266825        0.003375
       726         -1.03266831        0.003375
       727         -1.03266892        0.003375
       728         -1.03266909        0.003375
       729         -1.03266934        0.003375
       730         -1.03266949        0.003375
       731         -1.03266956        0.003375
       732         -1.03267038        0.003375
       733         -1.03267054        0.003375
       734         -1.03267082        0.003375
       735         -1.03267132        0.003375
       736         -1.03267135        0.003375
       737         -1.03267162        0.003375
       738         -1.03267232        0.003375
       739         -1.03267246        0.003375
       740         -1.03267262        0.003375
       741         -1.03267264        0.003375
       742         -1.03267325        0.003375
       743         -1.03267356        0.003375
       744         -1.03267411        0.003375
       745         -1.03267426        0.003375
       746         -1.03267432        0.003375
       747         -1.03267437        0.003375
       748         -1.03267469        0.003375
       749         -1.03267518        0.003375
       750         -1.03267588        0.003375
       751         -1.03267592        0.003375
       752         -1.03267669        0.003375
       753         -1.03267727        0.003375
       754         -1.03267804        0.003375
       755         -1.03267873        0.003375
       756         -1.03267976        0.003375
       757         -1.03267986        0.003375
       758         -1.03268012        0.003375
       759         -1.03268081        0.003375
       760         -1.03268113        0.003375
       761         -1.03268163        0.003375
       762         -1.03268164        0.003375
       763         -1.03268225        0.003375
       764         -1.03268270        0.003375
       765         -1.03268350        0.003375
       766         -1.03268419        0.003375
       767         -1.03268422        0.003375
       768         -1.03268488        0.003375
       769         -1.03268526        0.003375
       770         -1.03268601        0.003375
       771         -1.03268639        0.003375
       772         -1.03268650        0.003375
       773         -1.03268655        0.003375
       774         -1.03268657        0.003375
       775         -1.03268700        0.003375
       776         -1.03268761        0.003375
       777         -1.03268771        0.003375
       778         -1.03268915        0.003375
       779         -1.03268929        0.003375
       780         -1.03268967        0.003375
       781         -1.03269020        0.003375
       782         -1.03269048        0.003375
       783         -1.03269162        0.003375
       784         -1.03269190        0.003375
       785         -1.03269200        0.003375
       786         -1.03269238        0.003375
       787         -1.03269260        0.003375
       788         -1.03269277        0.003375
       789         -1.03269311        0.003375
       790         -1.03269311        0.003375
       791         -1.03269368        0.003375
       792         -1.03269373        0.003375
       793         -1.03269438        0.003375
       794         -1.03269441        0.003375
       795         -1.03269466        0.003375
       796         -1.03269482        0.003375
       797         -1.03269507        0.003375
       798         -1.03269546        0.003375
       799         -1.03269678        0.003375
       800         -1.03269759        0.003375
       801         -1.03269794        0.003375
       802         -1.03269818        0.003375
       803         -1.03269844        0.003375
       804         -1.03269892        0.003375
       805         -1.03269947        0.003375
       806         -1.03270034        0.003125
       807         -1.03270051        0.003125
       808         -1.03270160        0.003125
       809         -1.03270165        0.003125
       810         -1.03270185        0.003125
       811         -1.03270208        0.003125
       812         -1.03270248        0.003125
       813         -1.03270303        0.003125
       814         -1.03270305        0.003125
       815         -1.03270351        0.003125
       816         -1.03270362        0.003125
       817         -1.03270386        0.003125
       818         -1.03270420        0.003125
       819         -1.03270430        0.003125
       820         -1.03270500        0.003125
       821         -1.03270529        0.003125
       822         -1.03270580        0.003125
       823         -1.03270611        0.003125
       824         -1.03270653        0.003125
       825         -1.03270706        0.003125
       826         -1.03270711        0.003125
       827         -1.03270712        0.003125
       828         -1.03270729        0.003125
       829         -1.03270741        0.003125
       830         -1.03270743        0.003125
       831         -1.03270783        0.003125
       832         -1.03270794        0.003125
       833         -1.03270796        0.003125
       834         -1.03270798        0.003125
       835         -1.03270809        0.003125
       836         -1.03270813        0.003125
       837         -1.03270818        0.003125
       838         -1.03270830        0.003125
       839         -1.03270848        0.003125
       840         -1.03270912        0.003125
       841         -1.03270958        0.003125
       842         -1.03270967        0.003125
       843         -1.03270974        0.003125
       844         -1.03271101        0.003125
       845         -1.03271102        0.003125
       846         -1.03271110        0.003125
       847         -1.03271125        0.003125
       848         -1.03271156        0.003125
       849         -1.03271168        0.003125
       850         -1.03271236        0.003125
       851         -1.03271293        0.003125
       852         -1.03271300        0.003125
       853         -1.03271321        0.003125
       854         -1.03271411        0.003125
       855         -1.03271456        0.003125
       856         -1.03271469        0.003125
       857         -1.03271469        0.003125
       858         -1.03271520        0.003125
       859         -1.03271629        0.003125
       860         -1.03271650        0.003125
       861         -1.03271685        0.003125
       862         -1.03271716        0.003125
       863         -1.03271730        0.003125
       864         -1.03271775        0.003125
       865         -1.03271778        0.003125
       866         -1.03271789        0.003125
       867         -1.03271832        0.003125
       868         -1.03271860        0.003125
       869         -1.03271867        0.003125
       870         -1.03271944        0.003125
       871         -1.03271984        0.003125
       872         -1.03271997        0.003125
       873         -1.03272004        0.003125
       874         -1.03272011        0.003125
       875         -1.03272051        0.003125
       876         -1.03272067        0.003125
       877         -1.03272098        0.003125
       878         -1.03272098        0.003125
       879         -1.03272099        0.003125
       880         -1.03272134        0.003125
       881         -1.03272191        0.003125
       882         -1.03272204        0.003125
       883         -1.03272226        0.003125
       884         -1.03272241        0.003125
       885         -1.03272275        0.003125
       886         -1.03272344        0.003125
       887         -1.03272400        0.003125
       888         -1.03272421        0.003125
       889         -1.03272480        0.003125
       890         -1.03272572        0.003125
       891         -1.03272602        0.003125
       892         -1.03272672        0.003125
       893         -1.03272707        0.003125
       894         -1.03272722        0.003125
       895         -1.03272733        0.003125
       896         -1.03272811        0.003125
       897         -1.03272865        0.003125
       898         -1.03272871        0.003125
       899         -1.03272913        0.003125
       900         -1.03273010        0.003125
       901         -1.03273043        0.003125
       902         -1.03273057        0.003125
       903         -1.03273075        0.003125
       904         -1.03273084        0.003125
       905         -1.03273092        0.003125
       906         -1.03273183        0.003125
       907         -1.03273202        0.003125
       908         -1.03273243        0.003125
       909         -1.03273297        0.003125
       910         -1.03273331        0.003125
       911         -1.03273362        0.003125
       912         -1.03273368        0.003125
       913         -1.03273400        0.003125
       914         -1.03273406        0.003125
       915         -1.03273454        0.003125
       916         -1.03273462        0.003125
       917         -1.03273470        0.003125
       918         -1.03273503        0.002893
       919         -1.03273525        0.002893
       920         -1.03273531        0.002893
       921         -1.03273541        0.002893
       922         -1.03273608        0.002893
       923         -1.03273650        0.002893
       924         -1.03273665        0.002893
       925         -1.03273678        0.002893
       926         -1.03273724        0.002893
       927         -1.03273733        0.002893
       928         -1.03273788        0.002893
       929         -1.03273808        0.002893
       930         -1.03273831        0.002893
       931         -1.03273883        0.002893
       932         -1.03273902        0.002893
       933         -1.03273909        0.002893
       934         -1.03273915        0.002893
       935         -1.03273948        0.002893
       936         -1.03273998        0.002893
       937         -1.03274071        0.002893
       938         -1.03274082        0.002893
       939         -1.03274136        0.002893
       940         -1.03274244        0.002893
       941         -1.03274254        0.002893
       942         -1.03274261        0.002893
       943         -1.03274327        0.002679
       944         -1.03274335        0.002679
       945         -1.03274387        0.002679
       946         -1.03274407        0.002679
       947         -1.03274427        0.002679
       948         -1.03274430        0.002679
       949         -1.03274444        0.002679
       950         -1.03274451        0.002679
       951         -1.03274474        0.002679
       952         -1.03274482        0.002679
       953         -1.03274554        0.002679
       954         -1.03274604        0.002679
       955         -1.03274624        0.002679
       956         -1.03274634        0.002679
       957         -1.03274660        0.002679
       958         -1.03274707        0.002679
       959         -1.03274720        0.002679
       960         -1.03274774        0.002679
       961         -1.03274779        0.002679
       962         -1.03274821        0.002679
       963         -1.03274845        0.002679
       964         -1.03274920        0.002679
       965         -1.03274925        0.002679
       966         -1.03274931        0.002679
       967         -1.03274978        0.002679
       968         -1.03274981        0.002679
       969         -1.03275035        0.002679
       970         -1.03275054        0.002679
       971         -1.03275073        0.002679
       972         -1.03275075        0.002679
       973         -1.03275110        0.002679
       974         -1.03275125        0.002679
       975         -1.03275175        0.002679
       976         -1.03275185        0.002679
       977         -1.03275201        0.002679
       978         -1.03275207        0.002679
       979         -1.03275239        0.002679
       980         -1.03275292        0.002679
       981         -1.03275296        0.002679
       982         -1.03275317        0.002679
       983         -1.03275328        0.002679
       984         -1.03275335        0.002679
       985         -1.03275340        0.002679
       986         -1.03275362        0.002679
       987         -1.03275406        0.002679
       988         -1.03275497        0.002679
       989         -1.03275544        0.002679
       990         -1.03275603        0.002679
       991         -1.03275650        0.002679
       992         -1.03275685        0.002679
       993         -1.03275701        0.002679
       994         -1.03275782        0.002679
       995         -1.03275786        0.002679
       996         -1.03275875        0.002679
       997         -1.03275893        0.002679
       998         -1.03275917        0.002679
       999         -1.03275941        0.002679
      1000         -1.03275956        0.002679
      1001         -1.03275969        0.002679
      1002         -1.03275980        0.002679
      1003         -1.03276002        0.002679
      1004         -1.03276043        0.002679
      1005         -1.03276046        0.002679
      1006         -1.03276055        0.002679
      1007         -1.03276079        0.002679
      1008         -1.03276107        0.002679
      1009         -1.03276131        0.002679
      1010         -1.03276205        0.002679
      1011         -1.03276243        0.002679
      1012         -1.03276269        0.002679
      1013         -1.03276273        0.002679
      1014         -1.03276282        0.002679
      1015         -1.03276288        0.002679
      1016         -1.03276326        0.002679
      1017         -1.03276366        0.002679
      1018         -1.03276384        0.002679
      1019         -1.03276392        0.002679
      1020         -1.03276416        0.002679
      1021         -1.03276450        0.002679
      1022         -1.03276463        0.002679
      1023         -1.03276466        0.002679
      1024         -1.03276478        0.002679
      1025         -1.03276519        0.002679
      1026         -1.03276535        0.002679
      1027         -1.03276550        0.002679
      1028         -1.03276582        0.002679
      1029         -1.03276609        0.002679
      1030         -1.03276636        0.002679
      1031         -1.03276639        0.002679
      1032         -1.03276736        0.002679
      1033         -1.03276742        0.002679
      1034         -1.03276755        0.002679
      1035         -1.03276765        0.002679
      1036         -1.03276767        0.002679
      1037         -1.03276769        0.002679
      1038         -1.03276787        0.002679
      1039         -1.03276874        0.002679
      1040         -1.03276894        0.002679
      1041         -1.03276894        0.002679
      1042         -1.03276926        0.002679
      1043         -1.03276958        0.002679
      1044         -1.03276980        0.002679
      1045         -1.03276982        0.002679
      1046         -1.03276995        0.002679
      1047         -1.03276996        0.002679
      1048         -1.03277022        0.002679
      1049         -1.03277028        0.002679
      1050         -1.03277055        0.002679
      1051         -1.03277058        0.002679
      1052         -1.03277077        0.002679
      1053         -1.03277088        0.002679
      1054         -1.03277128        0.002679
      1055         -1.03277167        0.002679
      1056         -1.03277183        0.002679
      1057         -1.03277287        0.002679
      1058         -1.03277293        0.002679
      1059         -1.03277334        0.002679
      1060         -1.03277391        0.002679
      1061         -1.03277392        0.002679
      1062         -1.03277397        0.002679
      1063         -1.03277470        0.002679
      1064         -1.03277537        0.002679
      1065         -1.03277541        0.002679
      1066         -1.03277584        0.002679
      1067         -1.03277632        0.002679
      1068         -1.03277643        0.002679
      1069         -1.03277680        0.002679
      1070         -1.03277724        0.002679
      1071         -1.03277749        0.002679
      1072         -1.03277775        0.002679
      1073         -1.03277783        0.002679
      1074         -1.03277791        0.002679
      1075         -1.03277793        0.002679
      1076         -1.03277828        0.002679
      1077         -1.03277874        0.002679
      1078         -1.03277967        0.002679
      1079         -1.03277992        0.002679
      1080         -1.03278031        0.002679
      1081         -1.03278048        0.002679
      1082         -1.03278120        0.002679
      1083         -1.03278136        0.002679
      1084         -1.03278139        0.002679
      1085         -1.03278156        0.002679
      1086         -1.03278215        0.002679
      1087         -1.03278231        0.002679
      1088         -1.03278242        0.002679
      1089         -1.03278302        0.002679
      1090         -1.03278313        0.002679
      1091         -1.03278320        0.002679
      1092         -1.03278340        0.002679
      1093         -1.03278383        0.002679
      1094         -1.03278389        0.002679
      1095         -1.03278480        0.002679
      1096         -1.03278496        0.002679
      1097         -1.03278505        0.002679
      1098         -1.03278509        0.002679
      1099         -1.03278536        0.002679
      1100         -1.03278552        0.002679
      1101         -1.03278553        0.002679
      1102         -1.03278558        0.002679
      1103         -1.03278560        0.002679
      1104         -1.03278593        0.002679
      1105         -1.03278630        0.002679
      1106         -1.03278633        0.002679
      1107         -1.03278671        0.002679
      1108         -1.03278695        0.002679
      1109         -1.03278748        0.002679
      1110         -1.03278749        0.002679
      1111         -1.03278777        0.002679
      1112         -1.03278821        0.002679
      1113         -1.03278827        0.002679
      1114         -1.03278833        0.002679
      1115         -1.03278859        0.002679
      1116         -1.03278877        0.002679
      1117         -1.03278903        0.002679
      1118         -1.03278943        0.002679
      1119         -1.03278950        0.002679
      1120         -1.03278954        0.002679
      1121         -1.03278976        0.002679
      1122         -1.03279010        0.002679
      1123         -1.03279015        0.002679
      1124         -1.03279022        0.002679
      1125         -1.03279045        0.002679
      1126         -1.03279058        0.002679
      1127         -1.03279064        0.002679
      1128         -1.03279100        0.002679
      1129         -1.03279123        0.002679
      1130         -1.03279130        0.002679
      1131         -1.03279185        0.002679
      1132         -1.03279198        0.002679
      1133         -1.03279215        0.002679
      1134         -1.03279218        0.002679
      1135         -1.03279273        0.002679
      1136         -1.03279286        0.002679
      1137         -1.03279306        0.002679
      1138         -1.03279328        0.002679
      1139         -1.03279330        0.002679
      1140         -1.03279390        0.002679
      1141         -1.03279407        0.002679
      1142         -1.03279428        0.002679
      1143         -1.03279493        0.002679
      1144         -1.03279558        0.002679
      1145         -1.03279573        0.002679
      1146         -1.03279589        0.002679
      1147         -1.03279641        0.002679
      1148         -1.03279664        0.002679
      1149         -1.03279701        0.002679
      1150         -1.03279724        0.002679
      1151         -1.03279727        0.002679
      1152         -1.03279737        0.002679
      1153         -1.03279746        0.002679
      1154         -1.03279761        0.002679
      1155         -1.03279773        0.002679
      1156         -1.03279784        0.002679
      1157         -1.03279789        0.002679
      1158         -1.03279818        0.002679
      1159         -1.03279846        0.002679
      1160         -1.03279860        0.002679
      1161         -1.03279920        0.002679
      1162         -1.03279982        0.002679
      1163         -1.03279985        0.002679
      1164         -1.03279996        0.002679
      1165         -1.03280026        0.002679
      1166         -1.03280052        0.002679
      1167         -1.03280071        0.002679
      1168         -1.03280117        0.002679
      1169         -1.03280190        0.002679
      1170         -1.03280192        0.002679
      1171         -1.03280209        0.002679
      1172         -1.03280259        0.002679
      1173         -1.03280261        0.002679
      1174         -1.03280290        0.002679
      1175         -1.03280291        0.002679
      1176         -1.03280343        0.002679
      1177         -1.03280391        0.002679
      1178         -1.03280409        0.002679
      1179         -1.03280453        0.002679
      1180         -1.03280475        0.002679
      1181         -1.03280480        0.002679
      1182         -1.03280588        0.002679
      1183         -1.03280592        0.002679
      1184         -1.03280606        0.002679
      1185         -1.03280618        0.002679
      1186         -1.03280668        0.002679
      1187         -1.03280684        0.002679
      1188         -1.03280689        0.002679
      1189         -1.03280742        0.002679
      1190         -1.03280743        0.002679
      1191         -1.03280758        0.002679
      1192         -1.03280764        0.002679
      1193         -1.03280822        0.002679
      1194         -1.03280829        0.002679
      1195         -1.03280889        0.002679
      1196         -1.03280889        0.002679
      1197         -1.03280898        0.002679
      1198         -1.03280919        0.002679
      1199         -1.03280951        0.002679
      1200         -1.03280953        0.002679
      1201         -1.03280984        0.002679
      1202         -1.03281023        0.002679
      1203         -1.03281027        0.002679
      1204         -1.03281039        0.002679
      1205         -1.03281119        0.002679
      1206         -1.03281121        0.002679
      1207         -1.03281135        0.002679
      1208         -1.03281140        0.002679
      1209         -1.03281154        0.002679
      1210         -1.03281202        0.002679
      1211         -1.03281234        0.002679
      1212         -1.03281291        0.002679
      1213         -1.03281310        0.002679
      1214         -1.03281320        0.002679
      1215         -1.03281365        0.002679
      1216         -1.03281464        0.002679
      1217         -1.03281484        0.002679
      1218         -1.03281487        0.002679
      1219         -1.03281512        0.002679
      1220         -1.03281567        0.002679
      1221         -1.03281570        0.002679
      1222         -1.03281596        0.002679
      1223         -1.03281623        0.002679
      1224         -1.03281652        0.002679
      1225         -1.03281690        0.002679
      1226         -1.03281715        0.002679
      1227         -1.03281721        0.002679
      1228         -1.03281731        0.002679
      1229         -1.03281738        0.002679
      1230         -1.03281738        0.002679
      1231         -1.03281745        0.002679
      1232         -1.03281766        0.002679
      1233         -1.03281872        0.002679
      1234         -1.03281914        0.002679
      1235         -1.03282000        0.002679
      1236         -1.03282024        0.002679
      1237         -1.03282049        0.002679
      1238         -1.03282056        0.002679
      1239         -1.03282097        0.002679
      1240         -1.03282136        0.002679
      1241         -1.03282149        0.002679
      1242         -1.03282152        0.002679
      1243         -1.03282169        0.002679
      1244         -1.03282198        0.002679
      1245         -1.03282203        0.002679
      1246         -1.03282259        0.002679
      1247         -1.03282269        0.002679
      1248         -1.03282300        0.002679
      1249         -1.03282308        0.002679
      1250         -1.03282361        0.002679
      1251         -1.03282386        0.002679
      1252         -1.03282406        0.002679
      1253         -1.03282408        0.002679
      1254         -1.03282421        0.002679
      1255         -1.03282461        0.002679
      1256         -1.03282475        0.002679
      1257         -1.03282522        0.002679
      1258         -1.03282553        0.002679
      1259         -1.03282606        0.002679
      1260         -1.03282648        0.002679
      1261         -1.03282682        0.002679
      1262         -1.03282690        0.002679
      1263         -1.03282692        0.002679
      1264         -1.03282727        0.002679
      1265         -1.03282731        0.002679
      1266         -1.03282785        0.002679
      1267         -1.03282802        0.002679
      1268         -1.03282828        0.002679
      1269         -1.03282858        0.002679
      1270         -1.03282863        0.002679
      1271         -1.03282877        0.002679
      1272         -1.03282888        0.002679
      1273         -1.03282930        0.002679
      1274         -1.03283005        0.002679
      1275         -1.03283054        0.002679
      1276         -1.03283086        0.002679
      1277         -1.03283100        0.002679
      1278         -1.03283159        0.002679
      1279         -1.03283207        0.002679
      1280         -1.03283214        0.002679
      1281         -1.03283247        0.002679
      1282         -1.03283317        0.002679
      1283         -1.03283331        0.002679
      1284         -1.03283364        0.002679
      1285         -1.03283404        0.002679
      1286         -1.03283437        0.002679
      1287         -1.03283466        0.002679
      1288         -1.03283497        0.002679
      1289         -1.03283507        0.002679
      1290         -1.03283520        0.002679
      1291         -1.03283537        0.002679
      1292         -1.03283556        0.002679
      1293         -1.03283599        0.002679
      1294         -1.03283628        0.002679
      1295         -1.03283641        0.002679
      1296         -1.03283642        0.002679
      1297         -1.03283674        0.002679
      1298         -1.03283708        0.002679
      1299         -1.03283791        0.002679
      1300         -1.03283810        0.002679
      1301         -1.03283829        0.002679
      1302         -1.03283829        0.002679
      1303         -1.03283846        0.002679
      1304         -1.03283866        0.002679
      1305         -1.03283899        0.002679
      1306         -1.03283920        0.002679
      1307         -1.03283924        0.002679
      1308         -1.03283958        0.002679
      1309         -1.03283959        0.002679
      1310         -1.03284016        0.002679
      1311         -1.03284018        0.002679
      1312         -1.03284064        0.002679
      1313         -1.03284080        0.002679
      1314         -1.03284109        0.002679
      1315         -1.03284129        0.002679
      1316         -1.03284187        0.002679
      1317         -1.03284203        0.002679
      1318         -1.03284211        0.002679
      1319         -1.03284224        0.002679
      1320         -1.03284270        0.002679
      1321         -1.03284308        0.002679
      1322         -1.03284325        0.002679
      1323         -1.03284334        0.002679
      1324         -1.03284368        0.002679
      1325         -1.03284397        0.002679
      1326         -1.03284397        0.002679
      1327         -1.03284432        0.002679
      1328         -1.03284482        0.002679
      1329         -1.03284510        0.002679
      1330         -1.03284545        0.002679
      1331         -1.03284606        0.002679
      1332         -1.03284664        0.002679
      1333         -1.03284674        0.002679
      1334         -1.03284702        0.002679
      1335         -1.03284727        0.002679
      1336         -1.03284750        0.002679
      1337         -1.03284770        0.002679
      1338         -1.03284799        0.002679
      1339         -1.03284841        0.002679
      1340         -1.03284970        0.002679
      1341         -1.03284983        0.002679
      1342         -1.03285013        0.002679
      1343         -1.03285033        0.002679
      1344         -1.03285057        0.002679
      1345         -1.03285062        0.002679
      1346         -1.03285085        0.002679
      1347         -1.03285091        0.002679
      1348         -1.03285139        0.002679
      1349         -1.03285155        0.002679
      1350         -1.03285158        0.002679
      1351         -1.03285161        0.002679
      1352         -1.03285213        0.002679
      1353         -1.03285235        0.002679
      1354         -1.03285281        0.002679
      1355         -1.03285310        0.002679
      1356         -1.03285329        0.002679
      1357         -1.03285393        0.002679
      1358         -1.03285398        0.002679
      1359         -1.03285399        0.002679
      1360         -1.03285476        0.002679
      1361         -1.03285568        0.002679
      1362         -1.03285575        0.002679
      1363         -1.03285580        0.002679
      1364         -1.03285619        0.002679
      1365         -1.03285632        0.002679
      1366         -1.03285694        0.002679
      1367         -1.03285736        0.002679
      1368         -1.03285753        0.002679
      1369         -1.03285756        0.002679
      1370         -1.03285760        0.002679
      1371         -1.03285818        0.002679
      1372         -1.03285879        0.002679
      1373         -1.03285904        0.002679
      1374         -1.03285910        0.002679
      1375         -1.03285964        0.002679
      1376         -1.03285972        0.002679
      1377         -1.03285999        0.002679
      1378         -1.03286005        0.002679
      1379         -1.03286020        0.002679
      1380         -1.03286025        0.002679
      1381         -1.03286026        0.002679
      1382         -1.03286105        0.002679
      1383         -1.03286140        0.002679
      1384         -1.03286174        0.002679
      1385         -1.03286177        0.002679
      1386         -1.03286223        0.002679
      1387         -1.03286226        0.002679
      1388         -1.03286245        0.002679
      1389         -1.03286249        0.002679
      1390         -1.03286252        0.002679
      1391         -1.03286255        0.002679
      1392         -1.03286285        0.002679
      1393         -1.03286306        0.002679
      1394         -1.03286316        0.002679
      1395         -1.03286354        0.002679
      1396         -1.03286405        0.002679
      1397         -1.03286408        0.002679
      1398         -1.03286410        0.002679
      1399         -1.03286428        0.002679
      1400         -1.03286450        0.002679
      1401         -1.03286459        0.002679
      1402         -1.03286485        0.002679
      1403         -1.03286515        0.002679
      1404         -1.03286546        0.002679
      1405         -1.03286562        0.002679
      1406         -1.03286591        0.002679
      1407         -1.03286608        0.002679
      1408         -1.03286676        0.002679
      1409         -1.03286716        0.002679
      1410         -1.03286736        0.002679
      1411         -1.03286748        0.002679
      1412         -1.03286806        0.002679
      1413         -1.03286887        0.002679
      1414         -1.03286942        0.002679
      1415         -1.03286974        0.002679
      1416         -1.03287001        0.002679
      1417         -1.03287042        0.002679
      1418         -1.03287070        0.002679
      1419         -1.03287089        0.002679
      1420         -1.03287098        0.002679
      1421         -1.03287114        0.002679
      1422         -1.03287132        0.002679
      1423         -1.03287169        0.002679
      1424         -1.03287173        0.002679
      1425         -1.03287178        0.002679
      1426         -1.03287192        0.002679
      1427         -1.03287210        0.002679
      1428         -1.03287214        0.002679
      1429         -1.03287224        0.002679
      1430         -1.03287239        0.002679
      1431         -1.03287294        0.002679
      1432         -1.03287295        0.002679
      1433         -1.03287317        0.002679
      1434         -1.03287368        0.002679
      1435         -1.03287410        0.002679
      1436         -1.03287422        0.002679
      1437         -1.03287430        0.002679
      1438         -1.03287493        0.002679
      1439         -1.03287509        0.002679
      1440         -1.03287528        0.002679
      1441         -1.03287563        0.002679
      1442         -1.03287592        0.002679
      1443         -1.03287629        0.002679
      1444         -1.03287633        0.002679
      1445         -1.03287676        0.002679
      1446         -1.03287685        0.002679
      1447         -1.03287724        0.002679
      1448         -1.03287735        0.002679
      1449         -1.03287741        0.002679
      1450         -1.03287758        0.002679
      1451         -1.03287797        0.002679
      1452         -1.03287808        0.002679
      1453         -1.03287851        0.002679
      1454         -1.03287857        0.002679
      1455         -1.03287914        0.002679
      1456         -1.03287922        0.002679
      1457         -1.03288001        0.002679
      1458         -1.03288022        0.002679
      1459         -1.03288025        0.002679
      1460         -1.03288041        0.002679
      1461         -1.03288047        0.002679
      1462         -1.03288064        0.002679
      1463         -1.03288088        0.002679
      1464         -1.03288107        0.002679
      1465         -1.03288115        0.002679
      1466         -1.03288118        0.002679
      1467         -1.03288127        0.002679
      1468         -1.03288148        0.002679
      1469         -1.03288192        0.002679
      1470         -1.03288212        0.002679
      1471         -1.03288246        0.002679
      1472         -1.03288266        0.002679
      1473         -1.03288278        0.002679
      1474         -1.03288279        0.002679
      1475         -1.03288307        0.002679
      1476         -1.03288361        0.002679
      1477         -1.03288384        0.002679
      1478         -1.03288399        0.002679
      1479         -1.03288436        0.002679
      1480         -1.03288458        0.002679
      1481         -1.03288466        0.002679
      1482         -1.03288508        0.002679
      1483         -1.03288531        0.002679
      1484         -1.03288599        0.002679
      1485         -1.03288601        0.002679
      1486         -1.03288603        0.002679
      1487         -1.03288636        0.002679
      1488         -1.03288681        0.002679
      1489         -1.03288758        0.002679
      1490         -1.03288816        0.002679
      1491         -1.03288848        0.002679
      1492         -1.03288904        0.002679
      1493         -1.03288937        0.002679
      1494         -1.03288972        0.002679
      1495         -1.03289002        0.002679
      1496         -1.03289018        0.002679
      1497         -1.03289058        0.002679
      1498         -1.03289095        0.002679
      1499         -1.03289184        0.002679
      1500         -1.03289207        0.002679
      1501         -1.03289239        0.002679
      1502         -1.03289245        0.002679
      1503         -1.03289278        0.002679
      1504         -1.03289300        0.002679
      1505         -1.03289327        0.002679
      1506         -1.03289399        0.002679
      1507         -1.03289400        0.002679
      1508         -1.03289441        0.002679
      1509         -1.03289482        0.002679
      1510         -1.03289487        0.002679
      1511         -1.03289497        0.002679
      1512         -1.03289527        0.002679
      1513         -1.03289531        0.002679
      1514         -1.03289558        0.002679
      1515         -1.03289617        0.002679
      1516         -1.03289638        0.002679
      1517         -1.03289659        0.002679
      1518         -1.03289664        0.002679
      1519         -1.03289670        0.002679
      1520         -1.03289729        0.002679
      1521         -1.03289746        0.002679
      1522         -1.03289759        0.002679
      1523         -1.03289788        0.002679
      1524         -1.03289805        0.002679
      1525         -1.03289819        0.002679
      1526         -1.03289838        0.002679
      1527         -1.03289865        0.002679
      1528         -1.03289875        0.002679
      1529         -1.03289879        0.002679
      1530         -1.03289893        0.002679
      1531         -1.03289898        0.002679
      1532         -1.03289917        0.002679
      1533         -1.03289944        0.002679
      1534         -1.03289950        0.002679
      1535         -1.03290011        0.002679
      1536         -1.03290015        0.002679
      1537         -1.03290045        0.002679
      1538         -1.03290060        0.002480
      1539         -1.03290070        0.002480
      1540         -1.03290119        0.002480
      1541         -1.03290137        0.002480
      1542         -1.03290170        0.002480
      1543         -1.03290197        0.002480
      1544         -1.03290243        0.002480
      1545         -1.03290281        0.002480
      1546         -1.03290293        0.002480
      1547         -1.03290294        0.002480
      1548         -1.03290297        0.002480
      1549         -1.03290322        0.002480
      1550         -1.03290326        0.002480
      1551         -1.03290342        0.002480
[...]
                  ----------------------------------------------


 global array: Ca[1:10,1:10],  handle: -981 

                     1                       2                       3                       4                       5                       6  
       ----------------------- ----------------------- ----------------------- ----------------------- ----------------------- -----------------------
   1       0.86038,   -0.49016    -0.06540,    0.10945    -0.00803,   -0.03488    -0.00301,    0.00391     0.02768,    0.01590     0.00792,    0.01121
   2       0.02801,    0.12386     0.66089,    0.73511     0.03303,   -0.01635     0.01394,    0.03274     0.00504,   -0.04205    -0.00587,   -0.01351
   3      -0.02739,    0.00649    -0.01516,    0.02956     0.00174,   -0.72980     0.00409,   -0.67962    -0.00488,   -0.00301     0.01190,    0.02037
   4      -0.01185,    0.02594    -0.03331,    0.01222    -0.55258,   -0.39149     0.59487,    0.41967     0.01630,    0.03140    -0.02211,   -0.05056
   5       0.00824,   -0.01934    -0.01508,    0.03555    -0.02048,    0.02991     0.03928,   -0.01786    -0.89682,    0.17227     0.39361,   -0.05788
   6       0.01773,    0.00536     0.01979,   -0.02012     0.02097,    0.01942     0.03552,   -0.01846     0.13375,   -0.23655     0.34049,   -0.49004
   7       0.01611,    0.00272    -0.01280,    0.02048    -0.01124,    0.00326    -0.02276,    0.01876    -0.18156,   -0.18425    -0.40515,   -0.45694
   8       0.01179,   -0.01044    -0.02128,    0.00329     0.01801,   -0.03778    -0.03034,    0.01030    -0.09259,   -0.04823    -0.23884,   -0.07893
   9      -0.01076,    0.01334     0.01080,    0.02051     0.02325,   -0.02270    -0.02330,    0.01471    -0.03929,    0.08087    -0.07787,    0.19585
  10       0.00389,    0.01234     0.01256,   -0.01336     0.01431,   -0.02944    -0.02648,   -0.00100    -0.02102,    0.04199     0.02752,    0.01552

                     7                       8                       9                      10  
       ----------------------- ----------------------- ----------------------- -----------------------
   1      -0.01469,    0.00668    -0.00064,    0.00493     0.01543,   -0.00037    -0.01311,   -0.00519
   2      -0.02844,   -0.00817     0.00195,   -0.02144    -0.01866,    0.00366     0.01437,    0.01263
   3       0.03843,    0.00551     0.01304,   -0.00288     0.02241,    0.01658     0.01936,   -0.01317
   4      -0.03306,   -0.00180    -0.02014,   -0.03068     0.02591,   -0.02552    -0.03466,   -0.00819
   5       0.01287,    0.00720    -0.01005,   -0.02211    -0.00274,   -0.00469     0.04087,   -0.01202
   6       0.37449,   -0.54539    -0.16700,    0.21255     0.15236,   -0.17892    -0.02290,   -0.00426
   7       0.43462,    0.50173     0.15703,    0.17323     0.18055,    0.17356    -0.01284,    0.01073
   8       0.19712,    0.07072    -0.66636,   -0.20527    -0.59725,   -0.18860     0.00236,    0.00420
   9      -0.12859,    0.23887    -0.31573,    0.53213     0.35279,   -0.60169     0.03006,   -0.03182
  10      -0.00334,    0.01622    -0.01561,    0.02004     0.01126,   -0.02075    -0.56042,    0.82400

                   WFN1 Final beta Correlation Function Analysis
                   ---------------------------------------------


 global array: Cb[1:10,1:10],  handle: -980 

                     1                       2                       3                       4                       5                       6  
       ----------------------- ----------------------- ----------------------- ----------------------- ----------------------- -----------------------
   1       0.86038,   -0.49016    -0.06540,    0.10945    -0.00803,   -0.03488    -0.00301,    0.00391     0.02768,    0.01590     0.00792,    0.01121
   2       0.02801,    0.12386     0.66089,    0.73511     0.03303,   -0.01635     0.01394,    0.03274     0.00504,   -0.04205    -0.00587,   -0.01351
   3      -0.02739,    0.00649    -0.01516,    0.02956     0.00174,   -0.72980     0.00409,   -0.67962    -0.00488,   -0.00301     0.01190,    0.02037
   4      -0.01185,    0.02594    -0.03331,    0.01222    -0.55258,   -0.39149     0.59487,    0.41967     0.01630,    0.03140    -0.02211,   -0.05056
   5       0.00824,   -0.01934    -0.01508,    0.03555    -0.02048,    0.02991     0.03928,   -0.01786    -0.89682,    0.17227     0.39361,   -0.05788
   6       0.01773,    0.00536     0.01979,   -0.02012     0.02097,    0.01942     0.03552,   -0.01846     0.13375,   -0.23655     0.34049,   -0.49004
   7       0.01611,    0.00272    -0.01280,    0.02048    -0.01124,    0.00326    -0.02276,    0.01876    -0.18156,   -0.18425    -0.40515,   -0.45694
   8       0.01179,   -0.01044    -0.02128,    0.00329     0.01801,   -0.03778    -0.03034,    0.01030    -0.09259,   -0.04823    -0.23884,   -0.07893
   9      -0.01076,    0.01334     0.01080,    0.02051     0.02325,   -0.02270    -0.02330,    0.01471    -0.03929,    0.08087    -0.07787,    0.19585
  10       0.00389,    0.01234     0.01256,   -0.01336     0.01431,   -0.02944    -0.02648,   -0.00100    -0.02102,    0.04199     0.02752,    0.01552

                     7                       8                       9                      10  
       ----------------------- ----------------------- ----------------------- -----------------------
   1      -0.01469,    0.00668    -0.00064,    0.00493     0.01543,   -0.00037    -0.01311,   -0.00519
   2      -0.02844,   -0.00817     0.00195,   -0.02144    -0.01866,    0.00366     0.01437,    0.01263
   3       0.03843,    0.00551     0.01304,   -0.00288     0.02241,    0.01658     0.01936,   -0.01317
   4      -0.03306,   -0.00180    -0.02014,   -0.03068     0.02591,   -0.02552    -0.03466,   -0.00819
   5       0.01287,    0.00720    -0.01005,   -0.02211    -0.00274,   -0.00469     0.04087,   -0.01202
   6       0.37449,   -0.54539    -0.16700,    0.21255     0.15236,   -0.17892    -0.02290,   -0.00426
   7       0.43462,    0.50173     0.15703,    0.17323     0.18055,    0.17356    -0.01284,    0.01073
   8       0.19712,    0.07072    -0.66636,   -0.20527    -0.59725,   -0.18860     0.00236,    0.00420
   9      -0.12859,    0.23887    -0.31573,    0.53213     0.35279,   -0.60169     0.03006,   -0.03182
  10      -0.00334,    0.01622    -0.01561,    0.02004     0.01126,   -0.02075    -0.56042,    0.82400

                     WFN1 Final Alpha Natural Orbital Analysis
                     -----------------------------------------

 Vector    1  Occ=9.805081D-01  E= 0.000000D+00
              MO Center=  1.5D-05,  8.7D-06, -2.4D-04, r^2= 1.2D+00
   Bfn.  Coefficient  Atom+Function         Bfn.  Coefficient  Atom+Function  
  ----- ------------  ---------------      ----- ------------  ---------------
     2     -0.395331  1 H  s                  7     -0.394948  2 H  s          
     1     -0.248431  1 H  s                  6     -0.248422  2 H  s          

 Vector    2  Occ=1.612546D-02  E= 0.000000D+00
              MO Center=  1.4D-04,  4.3D-04, -6.3D-04, r^2= 1.5D+00
   Bfn.  Coefficient  Atom+Function         Bfn.  Coefficient  Atom+Function  
  ----- ------------  ---------------      ----- ------------  ---------------
     2     -0.643070  1 H  s                  7      0.641506  2 H  s          
     6      0.382418  2 H  s                  1     -0.380277  1 H  s          

 Vector    3  Occ=7.920667D-04  E= 0.000000D+00
              MO Center=  7.8D-04, -2.1D-03,  8.6D-03, r^2= 2.0D+00
   Bfn.  Coefficient  Atom+Function         Bfn.  Coefficient  Atom+Function  
  ----- ------------  ---------------      ----- ------------  ---------------
     7      1.141234  2 H  s                  2     -1.129649  1 H  s          
     6     -0.846995  2 H  s                  1      0.828736  1 H  s          
     5      0.182046  1 H  pz                10      0.165038  2 H  pz         

 Vector    4  Occ=8.130761D-04  E= 0.000000D+00
              MO Center=  8.1D-04, -5.0D-04, -1.1D-03, r^2= 1.5D+00
   Bfn.  Coefficient  Atom+Function         Bfn.  Coefficient  Atom+Function  
  ----- ------------  ---------------      ----- ------------  ---------------
     1     -0.817316  1 H  s                  6     -0.816812  2 H  s          
     7      0.648787  2 H  s                  2      0.639676  1 H  s          
     5     -0.307920  1 H  pz                10      0.290208  2 H  pz         

 Vector    5  Occ=4.418051D-04  E= 0.000000D+00
              MO Center=  4.6D-03, -1.1D-03, -1.1D-02, r^2= 1.0D+00
   Bfn.  Coefficient  Atom+Function         Bfn.  Coefficient  Atom+Function  
  ----- ------------  ---------------      ----- ------------  ---------------
     5      0.588895  1 H  pz                10     -0.587491  2 H  pz         
     1     -0.460835  1 H  s                  6     -0.433962  2 H  s          
     2      0.281918  1 H  s                  7      0.242167  2 H  s          
     3     -0.038944  1 H  px                 8     -0.031100  2 H  px         

 Vector    6  Occ=3.431584D-04  E= 0.000000D+00
              MO Center= -1.4D-04, -5.5D-04, -4.7D-04, r^2= 7.8D-01
   Bfn.  Coefficient  Atom+Function         Bfn.  Coefficient  Atom+Function  
  ----- ------------  ---------------      ----- ------------  ---------------
     4     -0.660018  1 H  py                 9     -0.626755  2 H  py         
     8     -0.307362  2 H  px                 3     -0.229268  1 H  px         

 Vector    7  Occ=2.670545D-04  E= 0.000000D+00
              MO Center= -5.1D-03,  2.1D-03,  2.6D-03, r^2= 7.8D-01
   Bfn.  Coefficient  Atom+Function         Bfn.  Coefficient  Atom+Function  
  ----- ------------  ---------------      ----- ------------  ---------------
     3     -0.647310  1 H  px                 8     -0.639529  2 H  px         
     9      0.282746  2 H  py                 4      0.254640  1 H  py         
     1      0.042025  1 H  s                  2     -0.034669  1 H  s          
     5     -0.030009  1 H  pz         

 Vector    8  Occ=2.480242D-04  E= 0.000000D+00
              MO Center= -2.8D-03,  1.1D-03, -2.5D-03, r^2= 8.0D-01
   Bfn.  Coefficient  Atom+Function         Bfn.  Coefficient  Atom+Function  
  ----- ------------  ---------------      ----- ------------  ---------------
     3      0.676265  1 H  px                 8     -0.641812  2 H  px         
     9      0.313377  2 H  py                 4     -0.238812  1 H  py         
    10     -0.029855  2 H  pz         

 Vector    9  Occ=2.938152D-04  E= 0.000000D+00
              MO Center=  6.5D-04,  1.6D-03,  3.4D-04, r^2= 8.0D-01
   Bfn.  Coefficient  Atom+Function         Bfn.  Coefficient  Atom+Function  
  ----- ------------  ---------------      ----- ------------  ---------------
     4      0.665412  1 H  py                 9     -0.654863  2 H  py         
     8     -0.289768  2 H  px                 3      0.264169  1 H  px         

 Vector   10  Occ=1.674448D-04  E= 0.000000D+00
              MO Center=  1.1D-03, -9.7D-04,  4.4D-03, r^2= 1.2D+00
   Bfn.  Coefficient  Atom+Function         Bfn.  Coefficient  Atom+Function  
  ----- ------------  ---------------      ----- ------------  ---------------
    10     -0.783107  2 H  pz                 5     -0.771780  1 H  pz         
     2     -0.606339  1 H  s                  7      0.594828  2 H  s          
     1      0.227785  1 H  s                  6     -0.214027  2 H  s          


                     WFN1 Final Beta Natural Orbital Analysis
                     ----------------------------------------

 Vector    1  Occ=9.805081D-01  E= 0.000000D+00
              MO Center=  1.5D-05,  8.7D-06, -2.4D-04, r^2= 1.2D+00
   Bfn.  Coefficient  Atom+Function         Bfn.  Coefficient  Atom+Function  
  ----- ------------  ---------------      ----- ------------  ---------------
     2     -0.395331  1 H  s                  7     -0.394948  2 H  s          
     1     -0.248431  1 H  s                  6     -0.248422  2 H  s          

 Vector    2  Occ=1.612546D-02  E= 0.000000D+00
              MO Center=  1.4D-04,  4.3D-04, -6.3D-04, r^2= 1.5D+00
   Bfn.  Coefficient  Atom+Function         Bfn.  Coefficient  Atom+Function  
  ----- ------------  ---------------      ----- ------------  ---------------
     2     -0.643070  1 H  s                  7      0.641506  2 H  s          
     6      0.382418  2 H  s                  1     -0.380277  1 H  s          

 Vector    3  Occ=7.920667D-04  E= 0.000000D+00
              MO Center=  7.8D-04, -2.1D-03,  8.6D-03, r^2= 2.0D+00
   Bfn.  Coefficient  Atom+Function         Bfn.  Coefficient  Atom+Function  
  ----- ------------  ---------------      ----- ------------  ---------------
     7      1.141234  2 H  s                  2     -1.129649  1 H  s          
     6     -0.846995  2 H  s                  1      0.828736  1 H  s          
     5      0.182046  1 H  pz                10      0.165038  2 H  pz         

 Vector    4  Occ=8.130761D-04  E= 0.000000D+00
              MO Center=  8.1D-04, -5.0D-04, -1.1D-03, r^2= 1.5D+00
   Bfn.  Coefficient  Atom+Function         Bfn.  Coefficient  Atom+Function  
  ----- ------------  ---------------      ----- ------------  ---------------
     1     -0.817316  1 H  s                  6     -0.816812  2 H  s          
     7      0.648787  2 H  s                  2      0.639676  1 H  s          
     5     -0.307920  1 H  pz                10      0.290208  2 H  pz         

 Vector    5  Occ=4.418051D-04  E= 0.000000D+00
              MO Center=  4.6D-03, -1.1D-03, -1.1D-02, r^2= 1.0D+00
   Bfn.  Coefficient  Atom+Function         Bfn.  Coefficient  Atom+Function  
  ----- ------------  ---------------      ----- ------------  ---------------
     5      0.588895  1 H  pz                10     -0.587491  2 H  pz         
     1     -0.460835  1 H  s                  6     -0.433962  2 H  s          
     2      0.281918  1 H  s                  7      0.242167  2 H  s          
     3     -0.038944  1 H  px                 8     -0.031100  2 H  px         

 Vector    6  Occ=3.431584D-04  E= 0.000000D+00
              MO Center= -1.4D-04, -5.5D-04, -4.7D-04, r^2= 7.8D-01
   Bfn.  Coefficient  Atom+Function         Bfn.  Coefficient  Atom+Function  
  ----- ------------  ---------------      ----- ------------  ---------------
     4     -0.660018  1 H  py                 9     -0.626755  2 H  py         
     8     -0.307362  2 H  px                 3     -0.229268  1 H  px         

 Vector    7  Occ=2.670545D-04  E= 0.000000D+00
              MO Center= -5.1D-03,  2.1D-03,  2.6D-03, r^2= 7.8D-01
   Bfn.  Coefficient  Atom+Function         Bfn.  Coefficient  Atom+Function  
  ----- ------------  ---------------      ----- ------------  ---------------
     3     -0.647310  1 H  px                 8     -0.639529  2 H  px         
     9      0.282746  2 H  py                 4      0.254640  1 H  py         
     1      0.042025  1 H  s                  2     -0.034669  1 H  s          
     5     -0.030009  1 H  pz         

 Vector    8  Occ=2.480242D-04  E= 0.000000D+00
              MO Center= -2.8D-03,  1.1D-03, -2.5D-03, r^2= 8.0D-01
   Bfn.  Coefficient  Atom+Function         Bfn.  Coefficient  Atom+Function  
  ----- ------------  ---------------      ----- ------------  ---------------
     3      0.676265  1 H  px                 8     -0.641812  2 H  px         
     9      0.313377  2 H  py                 4     -0.238812  1 H  py         
    10     -0.029855  2 H  pz         

 Vector    9  Occ=2.938152D-04  E= 0.000000D+00
              MO Center=  6.5D-04,  1.6D-03,  3.4D-04, r^2= 8.0D-01
   Bfn.  Coefficient  Atom+Function         Bfn.  Coefficient  Atom+Function  
  ----- ------------  ---------------      ----- ------------  ---------------
     4      0.665412  1 H  py                 9     -0.654863  2 H  py         
     8     -0.289768  2 H  px                 3      0.264169  1 H  px         

 Vector   10  Occ=1.674448D-04  E= 0.000000D+00
              MO Center=  1.1D-03, -9.7D-04,  4.4D-03, r^2= 1.2D+00
   Bfn.  Coefficient  Atom+Function         Bfn.  Coefficient  Atom+Function  
  ----- ------------  ---------------      ----- ------------  ---------------
    10     -0.783107  2 H  pz                 5     -0.771780  1 H  pz         
     2     -0.606339  1 H  s                  7      0.594828  2 H  s          
     1      0.227785  1 H  s                  6     -0.214027  2 H  s          


 Task  times  cpu:     2718.3s     wall:     3161.2s
 Summary of allocated global arrays
-----------------------------------
  No active global arrays



                         GA Statistics for process    0
                         ------------------------------

       create   destroy   get      put      acc     scatter   gather  read&inc
calls:   44       44     9.83e+08 4.22e+05 5.60e+05    0        0       11     
number of processes/call 1.00e+00 1.00e+00 1.00e+00 0.00e+00 0.00e+00
bytes total:             7.86e+11 4.48e+08 5.60e+08 0.00e+00 0.00e+00 8.80e+01
bytes remote:            0.00e+00 0.00e+00 0.00e+00 0.00e+00 0.00e+00 0.00e+00
Max memory consumed for GA by this process: 268000 bytes
MA_summarize_allocated_blocks: starting scan ...
MA_summarize_allocated_blocks: scan completed: 0 heap blocks, 0 stack blocks
MA usage statistics:

	allocation statistics:
					      heap	     stack
					      ----	     -----
	current number of blocks	         0	         0
	maximum number of blocks	        19	        17
	current total bytes		         0	         0
	maximum total bytes		   3205432	  22508664
	maximum total K-bytes		      3206	     22509
	maximum total M-bytes		         4	        23


                                NWChem Input Module
                                -------------------





                                     CITATION
                                     --------
                Please cite the following reference when publishing
                           results obtained with NWChem:

                 M. Valiev, E.J. Bylaska, N. Govind, K. Kowalski,
              T.P. Straatsma, H.J.J. van Dam, D. Wang, J. Nieplocha,
                        E. Apra, T.L. Windus, W.A. de Jong
                 "NWChem: a comprehensive and scalable open-source
                  solution for large scale molecular simulations"
                      Comput. Phys. Commun. 181, 1477 (2010)
                           doi:10.1016/j.cpc.2010.04.018

                                      AUTHORS
                                      -------
          E. Apra, E. J. Bylaska, W. A. de Jong, N. Govind, K. Kowalski,
       T. P. Straatsma, M. Valiev, H. J. J. van Dam, D. Wang, T. L. Windus,
        J. Hammond, J. Autschbach, K. Bhaskaran-Nair, J. Brabec, K. Lopata,
    S. A. Fischer, S. Krishnamoorthy, M. Jacquelin, W. Ma, M. Klemm, O. Villa,
      Y. Chen, V. Anisimov, F. Aquino, S. Hirata, M. T. Hackler, V. Konjkov,
      T. Risthaus, M. Malagoli, A. Marenich, A. Otero-de-la-Roza, J. Mullin,
        P. Nichols, R. Peverati, J. Pittner, Y. Zhao, P.-D. Fan, A. Fonari,
       M. Williamson, R. J. Harrison, J. R. Rehr, M. Dupuis, D. Silverstein,
    D. M. A. Smith, J. Nieplocha, V. Tipparaju, M. Krishnan, B. E. Van Kuiken,
        A. Vazquez-Mayagoitia, L. Jensen, M. Swart, Q. Wu, T. Van Voorhis,
     A. A. Auer, M. Nooijen, L. D. Crosby, E. Brown, G. Cisneros, G. I. Fann,
   H. Fruchtl, J. Garza, K. Hirao, R. A. Kendall, J. A. Nichols, K. Tsemekhman,
    K. Wolinski, J. Anchell, D. E. Bernholdt, P. Borowski, T. Clark, D. Clerc,
   H. Dachsel, M. J. O. Deegan, K. Dyall, D. Elwood, E. Glendening, M. Gutowski,
   A. C. Hess, J. Jaffe, B. G. Johnson, J. Ju, R. Kobayashi, R. Kutteh, Z. Lin,
   R. Littlefield, X. Long, B. Meng, T. Nakajima, S. Niu, L. Pollack, M. Rosing,
   K. Glaesemann, G. Sandrone, M. Stave, H. Taylor, G. Thomas, J. H. van Lenthe,
                               A. T. Wong, Z. Zhang.

 Total times  cpu:     2718.3s     wall:     3161.2s
