 argument  1 = input-wf.nw



============================== echo of input deck ==============================
echo
start wfn1_dat
geometry units au noautoz
  H 0 0 -1.84434600000000000000
  H 0 0  1.84434600000000000000
  symmetry cs
end
basis
  H library 6-31g**
end
set wfn1:input_vectors "atomic"
set wfn1:solver "monte-carlo"
set wfn1:print_error F
set wfn1:t_initial 0.1
#set wfn1:corr_expr "wfn1_mx"
set wfn1:corr_expr "wfn1c"
set wfn1:t_bath 0.0
set wfn1:maxit  20000
task wfn1 energy
================================================================================


                                         
                                         


              Northwest Computational Chemistry Package (NWChem) 6.8
              ------------------------------------------------------


                    Environmental Molecular Sciences Laboratory
                       Pacific Northwest National Laboratory
                                Richland, WA 99352

                              Copyright (c) 1994-2015
                       Pacific Northwest National Laboratory
                            Battelle Memorial Institute

             NWChem is an open-source computational chemistry package
                        distributed under the terms of the
                      Educational Community License (ECL) 2.0
             A copy of the license is included with this distribution
                              in the LICENSE.TXT file

                                  ACKNOWLEDGMENT
                                  --------------

            This software and its documentation were developed at the
            EMSL at Pacific Northwest National Laboratory, a multiprogram
            national laboratory, operated for the U.S. Department of Energy
            by Battelle under Contract Number DE-AC05-76RL01830. Support
            for this work was provided by the Department of Energy Office
            of Biological and Environmental Research, Office of Basic
            Energy Sciences, and the Office of Advanced Scientific Computing.


           Job information
           ---------------

    hostname        = erato
    program         = ../../../bin/LINUX64/nwchem
    date            = Mon Mar  1 19:35:06 2021

    compiled        = Sun_Feb_28_18:02:42_2021
    source          = /home/hvandam/nwchem-1-wfn1
    nwchem branch   = Development
    nwchem revision = nwchem_on_git-124-gad72d19fff205e319ffbbf2bca37a04ded6ad57b
    ga revision     = nwchem_on_git-124-gad72d19
    use scalapack   = F
    input           = input-wf.nw
    prefix          = wfn1_dat.
    data base       = ./wfn1_dat.db
    status          = startup
    nproc           =        1
    time left       =     -1s



           Memory information
           ------------------

    heap     =   13107200 doubles =    100.0 Mbytes
    stack    =   13107197 doubles =    100.0 Mbytes
    global   =   26214400 doubles =    200.0 Mbytes (distinct from heap & stack)
    total    =   52428797 doubles =    400.0 Mbytes
    verify   = yes
    hardfail = no 


           Directory information
           ---------------------

  0 permanent = .
  0 scratch   = .




                                NWChem Input Module
                                -------------------


 Turning off AUTOSYM since
 SYMMETRY directive was detected!



                             Geometry "geometry" -> ""
                             -------------------------

 Output coordinates in a.u. (scale by  1.000000000 to convert to a.u.)

  No.       Tag          Charge          X              Y              Z
 ---- ---------------- ---------- -------------- -------------- --------------
    1 H                    1.0000     0.00000000     0.00000000    -1.84434600
    2 H                    1.0000     0.00000000     0.00000000     1.84434600

      Atomic Mass 
      ----------- 

      H                  1.007825


 Effective nuclear repulsion energy (a.u.)       0.2710988068

            Nuclear Dipole moment (a.u.) 
            ----------------------------
        X                 Y               Z
 ---------------- ---------------- ----------------
     0.0000000000     0.0000000000     0.0000000000

      Symmetry information
      --------------------

 Group name             Cs        
 Group number              2
 Group order               2
 No. of unique centers     1

      Symmetry unique atoms

     1


            XYZ format geometry
            -------------------
     2
 geometry
 H                     0.00000000     0.00000000    -0.97598594
 H                     0.00000000     0.00000000     0.97598594

                      Basis "ao basis" -> "" (cartesian)
                      -----
  H (Hydrogen)
  ------------
            Exponent  Coefficients 
       -------------- ---------------------------------------------------------
  1 S  1.87311370E+01  0.033495
  1 S  2.82539370E+00  0.234727
  1 S  6.40121700E-01  0.813757

  2 S  1.61277800E-01  1.000000

  3 P  1.10000000E+00  1.000000



 Summary of "ao basis" -> "" (cartesian)
 ------------------------------------------------------------------------------
       Tag                 Description            Shells   Functions and Types
 ---------------- ------------------------------  ------  ---------------------
 H                          6-31g**                  3        5   2s1p



                                NWChem WFN1 Module
                                ------------------



          No. of electrons :     2
           Alpha electrons :     1
            Beta electrons :     1
          Charge           :     0
          Spin multiplicity:     1

 HvD: wfn1_inpdft
 HvD: nquad_task =                     1
 HvD: iangquad   =                     0
 HvD: gridtype   = user      
 HvD: leb        =  T
 HvD: radgrid    = murakn    
 HvD: trunc_neigh=  T
 HvD: lssw       =  T
 HvD: whichssw   = erf1    
 HvD: mxnrad     =                     0
 HvD: mxnang     =                     0
 HVD: wfn1: movecs_in  = atomic                                                                                                                                                                                                                                                          
 HVD: wfn1: movecs_out = ./wfn1_dat.movecs                                                                                                                                                                                                                                               

      Superposition of Atomic Density Guess
      -------------------------------------

 Sum of atomic energies:          -0.99646508

      Non-variational initial energy
      ------------------------------

 Total energy =      -0.695553
 1-e energy   =      -1.537931
 2-e energy   =       0.571278
 HOMO         =      -0.272598
 LUMO         =      -0.100535

 iteration              energy           error
 ---------              ------           -----
         0         -0.91199071        0.200000
         1         -0.91473259        0.200000
         2         -0.91581775        0.200000
         3         -0.91792177        0.200000
         4         -0.91995354        0.200000
         5         -0.92114377        0.200000
         6         -0.92265380        0.200000
         7         -0.92312149        0.200000
         8         -0.92335553        0.200000
         9         -0.92481004        0.200000
        10         -0.92513368        0.185175
        11         -0.92556504        0.185175
        12         -0.92644073        0.171449
        13         -0.92776787        0.171449
        14         -0.92792544        0.171449
        15         -0.92822158        0.171449
        16         -0.92829811        0.171449
        17         -0.92869479        0.158740
        18         -0.92880690        0.158740
        19         -0.92939596        0.146973
        20         -0.92955430        0.125992
        21         -0.92967408        0.125992
        22         -0.92973707        0.116653
        23         -0.92978111        0.116653
        24         -0.92983972        0.116653
        25         -0.92994825        0.108006
        26         -0.92998833        0.108006
        27         -0.92999955        0.108006
        28         -0.93008483        0.108006
        29         -0.93024655        0.108006
        30         -0.93025516        0.108006
        31         -0.93059997        0.108006
        32         -0.93061864        0.108006
        33         -0.93074972        0.108006
        34         -0.93079853        0.100000
        35         -0.93098303        0.092587
        36         -0.93099107        0.092587
        37         -0.93124239        0.092587
        38         -0.93129362        0.085724
        39         -0.93130367        0.085724
        40         -0.93133928        0.085724
        41         -0.93133953        0.085724
        42         -0.93155464        0.085724
        43         -0.93168491        0.085724
        44         -0.93179256        0.079370
        45         -0.93192237        0.079370
        46         -0.93210450        0.079370
        47         -0.93220436        0.073487
        48         -0.93221942        0.062996
        49         -0.93225496        0.062996
        50         -0.93226725        0.062996
        51         -0.93229698        0.062996
        52         -0.93236383        0.062996
        53         -0.93239117        0.062996
        54         -0.93241101        0.062996
        55         -0.93245623        0.054003
        56         -0.93260091        0.054003
        57         -0.93269359        0.054003
        58         -0.93279480        0.050000
        59         -0.93280159        0.046294
        60         -0.93283044        0.046294
        61         -0.93284031        0.042862
        62         -0.93289633        0.042862
        63         -0.93293753        0.021431
        64         -0.93297764        0.021431
        65         -0.93298576        0.015749
        66         -0.93300329        0.003645
        67         -0.93301819        0.002893
        68         -0.93301976        0.002126
        69         -0.93303498        0.001447
        70         -0.93303791        0.001063
        71         -0.93304208        0.000723
        72         -0.93304272        0.000422
        73         -0.93304401        0.000422
        74         -0.93304583        0.000422
        75         -0.93304917        0.000084
        76         -0.93304967        0.000045
        77         -0.93305057        0.000045
        78         -0.93305097        0.000028
        79         -0.93305113        0.000015
        80         -0.93305132        0.000010
        81         -0.93305194        0.000008
        82         -0.93305236        0.000006
        83         -0.93305291        0.000005
        84         -0.93305345        0.000001
        85         -0.93305347        0.000001
        86         -0.93305368        0.000000

 Reached Convergence

 WFN1                     :
 --------------------------
 Total WFN1 energy  =          -0.9330536845
 1-Electron energy  =          -1.5929454576
 2-Electron energy  =           0.4283640782
 Correlation energy =          -0.0395711120
 DFT XC energy      =           0.0000000000
 Entropy energy     =           0.0000000000
 Nuclear energy     =           0.2710988068

 conventional Hartree-Fock:
 --------------------------
 Total SCF energy  =          -0.8950692649
 2-Electron energy =           0.4663484979

                WFN1 Final Natural orbital energies and occupations
                ---------------------------------------------------

              Alpha       Beta            Alpha       Beta  
            --------    --------        --------    --------
       1      0.0000      0.0000          0.9214      0.9214
       2      0.0000      0.0000          0.0739      0.0739
       3      0.0000      0.0000          0.0017      0.0017
       4      0.0000      0.0000          0.0017      0.0017
       5      0.0000      0.0000          0.0004      0.0004
       6      0.0000      0.0000          0.0003      0.0003
       7      0.0000      0.0000          0.0000      0.0000
       8      0.0000      0.0000          0.0000      0.0000
       9      0.0000      0.0000          0.0002      0.0002
      10      0.0000      0.0000          0.0003      0.0003

             WFN1 Final Correlation function energies and occupations
             --------------------------------------------------------

              Alpha       Beta            Alpha       Beta  
            --------    --------        --------    --------
       1      0.0000      0.0000          1.0000      1.0000
       2      0.0000      0.0000          0.0000      0.0000
       3      0.0000      0.0000          0.0000      0.0000
       4      0.0000      0.0000          0.0000      0.0000
       5      0.0000      0.0000          0.0000      0.0000
       6      0.0000      0.0000          0.0000      0.0000
       7      0.0000      0.0000          0.0000      0.0000
       8      0.0000      0.0000          0.0000      0.0000
       9      0.0000      0.0000          0.0000      0.0000
      10      0.0000      0.0000          0.0000      0.0000

                WFN1 Final alpha-alpha 2-matrix occupation numbers
                --------------------------------------------------


 global array: g_momo1[1:10,1:10],  handle: -990 

            1           2           3           4           5           6  
       ----------- ----------- ----------- ----------- ----------- -----------
   1       0.00000    -0.00000     0.00000    -0.00000    -0.00000     0.00000
   2       0.00000     0.00000     0.00000    -0.00000     0.00000     0.00000
   3       0.00000     0.00000    -0.00000    -0.00000    -0.00000     0.00000
   4       0.00000    -0.00000    -0.00000     0.00000     0.00000     0.00000
   5       0.00000     0.00000    -0.00000     0.00000     0.00000     0.00000
   6       0.00000    -0.00000     0.00000     0.00000     0.00000     0.00000
   7       0.00000    -0.00000     0.00000    -0.00000    -0.00000     0.00000
   8       0.00000     0.00000     0.00000     0.00000    -0.00000     0.00000
   9       0.00000     0.00000     0.00000     0.00000     0.00000     0.00000
  10       0.00000     0.00000     0.00000     0.00000     0.00000     0.00000

            7           8           9          10  
       ----------- ----------- ----------- -----------
   1       0.00000     0.00000     0.00000     0.00000
   2       0.00000    -0.00000     0.00000     0.00000
   3      -0.00000     0.00000     0.00000     0.00000
   4      -0.00000     0.00000     0.00000     0.00000
   5       0.00000     0.00000     0.00000     0.00000
   6       0.00000     0.00000     0.00000     0.00000
   7       0.00000     0.00000     0.00000     0.00000
   8      -0.00000    -0.00000     0.00000     0.00000
   9      -0.00000     0.00000     0.00000     0.00000
  10      -0.00000    -0.00000     0.00000     0.00000

                 WFN1 Final beta-beta 2-matrix occupation numbers
                 ------------------------------------------------


 global array: g_momo2[1:10,1:10],  handle: -989 

            1           2           3           4           5           6  
       ----------- ----------- ----------- ----------- ----------- -----------
   1       0.00000    -0.00000     0.00000    -0.00000    -0.00000     0.00000
   2       0.00000     0.00000     0.00000    -0.00000     0.00000     0.00000
   3       0.00000     0.00000    -0.00000    -0.00000    -0.00000     0.00000
   4       0.00000    -0.00000    -0.00000     0.00000     0.00000     0.00000
   5       0.00000     0.00000    -0.00000     0.00000     0.00000     0.00000
   6       0.00000    -0.00000     0.00000     0.00000     0.00000     0.00000
   7       0.00000    -0.00000     0.00000    -0.00000    -0.00000     0.00000
   8       0.00000     0.00000     0.00000     0.00000    -0.00000     0.00000
   9       0.00000     0.00000     0.00000     0.00000     0.00000     0.00000
  10       0.00000     0.00000     0.00000     0.00000     0.00000     0.00000

            7           8           9          10  
       ----------- ----------- ----------- -----------
   1       0.00000     0.00000     0.00000     0.00000
   2       0.00000    -0.00000     0.00000     0.00000
   3      -0.00000     0.00000     0.00000     0.00000
   4      -0.00000     0.00000     0.00000     0.00000
   5       0.00000     0.00000     0.00000     0.00000
   6       0.00000     0.00000     0.00000     0.00000
   7       0.00000     0.00000     0.00000     0.00000
   8      -0.00000    -0.00000     0.00000     0.00000
   9      -0.00000     0.00000     0.00000     0.00000
  10      -0.00000    -0.00000     0.00000     0.00000

                  WFN1 Final alpha Correlation Function Analysis
                  ----------------------------------------------


 global array: Ca[1:10,1:10],  handle: -981 

                     1                       2                       3                       4                       5                       6  
       ----------------------- ----------------------- ----------------------- ----------------------- ----------------------- -----------------------
   1      -0.65859,    0.69836     0.17989,   -0.20050    -0.02915,   -0.01163     0.01444,   -0.05492    -0.03769,   -0.00430     0.00256,    0.00428
   2       0.15510,   -0.22335     0.52831,   -0.79820    -0.04659,   -0.00109    -0.02358,   -0.00172    -0.03276,   -0.02648     0.02833,    0.01857
   3      -0.02588,   -0.03171    -0.03078,    0.04805    -0.72697,   -0.14763    -0.65018,   -0.13369     0.01911,   -0.01108     0.02363,   -0.00705
   4      -0.04022,    0.00753     0.01586,   -0.01808     0.63116,   -0.19632    -0.70702,    0.21824     0.00773,    0.00592    -0.05142,   -0.01478
   5      -0.01291,   -0.01648    -0.01516,   -0.02154    -0.02088,    0.05461     0.01946,    0.01117     0.10462,    0.49088     0.10516,    0.40556
   6      -0.01004,   -0.01444     0.01302,    0.02576     0.01765,    0.03462    -0.01669,   -0.05507    -0.20601,    0.37234    -0.27564,    0.46942
   7       0.00518,    0.00176    -0.03235,   -0.00614     0.03769,    0.01834    -0.01872,   -0.04371    -0.28437,   -0.30829     0.02906,   -0.04404
   8       0.00000,   -0.00000    -0.04784,    0.01471     0.02008,   -0.00324    -0.01126,    0.03304    -0.30019,   -0.29334     0.30603,    0.38626
   9       0.00702,   -0.01040     0.03026,    0.02010     0.01901,    0.02239    -0.02713,    0.00103    -0.36598,    0.06876     0.42338,   -0.05533
  10      -0.01733,   -0.00587     0.01497,   -0.02694    -0.03417,    0.02273     0.00906,    0.00053     0.17203,    0.20707    -0.24078,   -0.19382

                     7                       8                       9                      10  
       ----------------------- ----------------------- ----------------------- -----------------------
   1       0.00115,    0.00088     0.00926,    0.00727     0.00248,    0.00928    -0.00958,    0.00224
   2       0.05094,   -0.03242     0.01437,    0.00956     0.00513,    0.01127    -0.00897,   -0.00239
   3       0.03521,    0.00954     0.01925,    0.00416     0.01483,   -0.01631     0.00215,   -0.02958
   4       0.00074,    0.01928     0.00776,    0.06337     0.06588,   -0.02070    -0.00000,    0.03411
   5       0.08233,    0.50592     0.10072,    0.53905    -0.04240,    0.00840    -0.04343,    0.01686
   6       0.17526,   -0.25844     0.29812,   -0.42262     0.15632,   -0.35562    -0.02500,   -0.01036
   7       0.27142,    0.27945     0.00627,    0.02184    -0.57774,   -0.57413     0.00383,    0.02152
   8       0.33846,    0.32253    -0.29675,   -0.30430     0.28933,    0.30531     0.02337,    0.01219
   9      -0.42833,    0.08823     0.40579,   -0.07757     0.00194,    0.01139     0.55375,   -0.08506
  10       0.19278,    0.18884    -0.21636,   -0.16800     0.02662,   -0.02346     0.59567,    0.57009

                   WFN1 Final beta Correlation Function Analysis
                   ---------------------------------------------


 global array: Cb[1:10,1:10],  handle: -980 

                     1                       2                       3                       4                       5                       6  
       ----------------------- ----------------------- ----------------------- ----------------------- ----------------------- -----------------------
   1      -0.65859,    0.69836     0.17989,   -0.20050    -0.02915,   -0.01163     0.01444,   -0.05492    -0.03769,   -0.00430     0.00256,    0.00428
   2       0.15510,   -0.22335     0.52831,   -0.79820    -0.04659,   -0.00109    -0.02358,   -0.00172    -0.03276,   -0.02648     0.02833,    0.01857
   3      -0.02588,   -0.03171    -0.03078,    0.04805    -0.72697,   -0.14763    -0.65018,   -0.13369     0.01911,   -0.01108     0.02363,   -0.00705
   4      -0.04022,    0.00753     0.01586,   -0.01808     0.63116,   -0.19632    -0.70702,    0.21824     0.00773,    0.00592    -0.05142,   -0.01478
   5      -0.01291,   -0.01648    -0.01516,   -0.02154    -0.02088,    0.05461     0.01946,    0.01117     0.10462,    0.49088     0.10516,    0.40556
   6      -0.01004,   -0.01444     0.01302,    0.02576     0.01765,    0.03462    -0.01669,   -0.05507    -0.20601,    0.37234    -0.27564,    0.46942
   7       0.00518,    0.00176    -0.03235,   -0.00614     0.03769,    0.01834    -0.01872,   -0.04371    -0.28437,   -0.30829     0.02906,   -0.04404
   8       0.00000,   -0.00000    -0.04784,    0.01471     0.02008,   -0.00324    -0.01126,    0.03304    -0.30019,   -0.29334     0.30603,    0.38626
   9       0.00702,   -0.01040     0.03026,    0.02010     0.01901,    0.02239    -0.02713,    0.00103    -0.36598,    0.06876     0.42338,   -0.05533
  10      -0.01733,   -0.00587     0.01497,   -0.02694    -0.03417,    0.02273     0.00906,    0.00053     0.17203,    0.20707    -0.24078,   -0.19382

                     7                       8                       9                      10  
       ----------------------- ----------------------- ----------------------- -----------------------
   1       0.00115,    0.00088     0.00926,    0.00727     0.00248,    0.00928    -0.00958,    0.00224
   2       0.05094,   -0.03242     0.01437,    0.00956     0.00513,    0.01127    -0.00897,   -0.00239
   3       0.03521,    0.00954     0.01925,    0.00416     0.01483,   -0.01631     0.00215,   -0.02958
   4       0.00074,    0.01928     0.00776,    0.06337     0.06588,   -0.02070    -0.00000,    0.03411
   5       0.08233,    0.50592     0.10072,    0.53905    -0.04240,    0.00840    -0.04343,    0.01686
   6       0.17526,   -0.25844     0.29812,   -0.42262     0.15632,   -0.35562    -0.02500,   -0.01036
   7       0.27142,    0.27945     0.00627,    0.02184    -0.57774,   -0.57413     0.00383,    0.02152
   8       0.33846,    0.32253    -0.29675,   -0.30430     0.28933,    0.30531     0.02337,    0.01219
   9      -0.42833,    0.08823     0.40579,   -0.07757     0.00194,    0.01139     0.55375,   -0.08506
  10       0.19278,    0.18884    -0.21636,   -0.16800     0.02662,   -0.02346     0.59567,    0.57009

                     WFN1 Final Alpha Natural Orbital Analysis
                     -----------------------------------------

 Vector    1  Occ=9.214386D-01  E= 0.000000D+00
              MO Center= -1.3D-03,  7.5D-04, -3.8D-03, r^2= 1.7D+00
   Bfn.  Coefficient  Atom+Function         Bfn.  Coefficient  Atom+Function  
  ----- ------------  ---------------      ----- ------------  ---------------
     2     -0.466038  1 H  s                  7     -0.461586  2 H  s          
     1     -0.225210  1 H  s                  6     -0.226002  2 H  s          

 Vector    2  Occ=7.394144D-02  E= 0.000000D+00
              MO Center=  6.5D-03,  5.3D-03,  4.8D-03, r^2= 2.1D+00
   Bfn.  Coefficient  Atom+Function         Bfn.  Coefficient  Atom+Function  
  ----- ------------  ---------------      ----- ------------  ---------------
     2     -0.627353  1 H  s                  7      0.598345  2 H  s          
     6      0.285625  2 H  s                  1     -0.243305  1 H  s          

 Vector    3  Occ=1.675501D-03  E= 0.000000D+00
              MO Center=  5.1D-03,  7.3D-03, -1.5D-02, r^2= 1.9D+00
   Bfn.  Coefficient  Atom+Function         Bfn.  Coefficient  Atom+Function  
  ----- ------------  ---------------      ----- ------------  ---------------
     1     -0.920665  1 H  s                  6     -0.900766  2 H  s          
     7      0.680624  2 H  s                  2      0.662032  1 H  s          
     4     -0.052003  1 H  py                 3     -0.045621  1 H  px         

 Vector    4  Occ=1.674727D-03  E= 0.000000D+00
              MO Center= -3.1D-03, -3.5D-03,  1.3D-03, r^2= 2.5D+00
   Bfn.  Coefficient  Atom+Function         Bfn.  Coefficient  Atom+Function  
  ----- ------------  ---------------      ----- ------------  ---------------
     2      0.975149  1 H  s                  7     -0.977661  2 H  s          
     6      0.916723  2 H  s                  1     -0.910980  1 H  s          
     5     -0.084475  1 H  pz                 8     -0.048325  2 H  px         
    10     -0.039565  2 H  pz         

 Vector    5  Occ=4.382863D-04  E= 0.000000D+00
              MO Center= -4.8D-04,  1.0D-03,  3.4D-02, r^2= 1.3D+00
   Bfn.  Coefficient  Atom+Function         Bfn.  Coefficient  Atom+Function  
  ----- ------------  ---------------      ----- ------------  ---------------
    10     -0.714504  2 H  pz                 5      0.695707  1 H  pz         
     7     -0.100286  2 H  s                  6      0.064165  2 H  s          
     9     -0.056766  2 H  py                 2     -0.040547  1 H  s          

 Vector    6  Occ=3.093751D-04  E= 0.000000D+00
              MO Center= -1.3D-03, -9.2D-03, -2.8D-02, r^2= 1.3D+00
   Bfn.  Coefficient  Atom+Function         Bfn.  Coefficient  Atom+Function  
  ----- ------------  ---------------      ----- ------------  ---------------
     4     -0.705398  1 H  py                 9     -0.691402  2 H  py         
     3     -0.110108  1 H  px                 8     -0.084529  2 H  px         
     5     -0.051956  1 H  pz                 1      0.048512  1 H  s          
     2     -0.035984  1 H  s          

 Vector    7  Occ=2.988955D-05  E= 0.000000D+00
              MO Center= -2.0D-03,  3.1D-04, -1.2D-03, r^2= 1.3D+00
   Bfn.  Coefficient  Atom+Function         Bfn.  Coefficient  Atom+Function  
  ----- ------------  ---------------      ----- ------------  ---------------
     3     -0.702672  1 H  px                 8     -0.691316  2 H  px         
     9      0.138061  2 H  py                 2     -0.078055  1 H  s          
     1      0.064850  1 H  s                  4      0.059145  1 H  py         
    10     -0.047987  2 H  pz                 7      0.042214  2 H  s          

 Vector    8  Occ=6.787503D-20  E= 0.000000D+00
              MO Center= -1.0D-03, -3.1D-03,  6.5D-02, r^2= 1.3D+00
   Bfn.  Coefficient  Atom+Function         Bfn.  Coefficient  Atom+Function  
  ----- ------------  ---------------      ----- ------------  ---------------
     9      0.651001  2 H  py                 4     -0.638022  1 H  py         
     8      0.324401  2 H  px                 3     -0.244571  1 H  px         
     7     -0.077616  2 H  s                  6      0.071428  2 H  s          
    10     -0.025793  2 H  pz         

 Vector    9  Occ=1.575453D-04  E= 0.000000D+00
              MO Center= -3.6D-03,  1.6D-03, -3.7D-02, r^2= 1.3D+00
   Bfn.  Coefficient  Atom+Function         Bfn.  Coefficient  Atom+Function  
  ----- ------------  ---------------      ----- ------------  ---------------
     3      0.656982  1 H  px                 8     -0.635186  2 H  px         
     4     -0.295838  1 H  py                 9      0.274875  2 H  py         
     7      0.036655  2 H  s                 10     -0.036745  2 H  pz         
     6     -0.030530  2 H  s          

 Vector   10  Occ=3.346624D-04  E= 0.000000D+00
              MO Center=  1.1D-03, -5.9D-04, -2.0D-02, r^2= 1.3D+00
   Bfn.  Coefficient  Atom+Function         Bfn.  Coefficient  Atom+Function  
  ----- ------------  ---------------      ----- ------------  ---------------
     5     -0.718533  1 H  pz                10     -0.703361  2 H  pz         
     2     -0.247768  1 H  s                  7      0.246999  2 H  s          
     1      0.147707  1 H  s                  6     -0.143282  2 H  s          
     8      0.058409  2 H  px                 4      0.033781  1 H  py         


                     WFN1 Final Beta Natural Orbital Analysis
                     ----------------------------------------

 Vector    1  Occ=9.214386D-01  E= 0.000000D+00
              MO Center= -1.3D-03,  7.5D-04, -3.8D-03, r^2= 1.7D+00
   Bfn.  Coefficient  Atom+Function         Bfn.  Coefficient  Atom+Function  
  ----- ------------  ---------------      ----- ------------  ---------------
     2     -0.466038  1 H  s                  7     -0.461586  2 H  s          
     1     -0.225210  1 H  s                  6     -0.226002  2 H  s          

 Vector    2  Occ=7.394144D-02  E= 0.000000D+00
              MO Center=  6.5D-03,  5.3D-03,  4.8D-03, r^2= 2.1D+00
   Bfn.  Coefficient  Atom+Function         Bfn.  Coefficient  Atom+Function  
  ----- ------------  ---------------      ----- ------------  ---------------
     2     -0.627353  1 H  s                  7      0.598345  2 H  s          
     6      0.285625  2 H  s                  1     -0.243305  1 H  s          

 Vector    3  Occ=1.675501D-03  E= 0.000000D+00
              MO Center=  5.1D-03,  7.3D-03, -1.5D-02, r^2= 1.9D+00
   Bfn.  Coefficient  Atom+Function         Bfn.  Coefficient  Atom+Function  
  ----- ------------  ---------------      ----- ------------  ---------------
     1     -0.920665  1 H  s                  6     -0.900766  2 H  s          
     7      0.680624  2 H  s                  2      0.662032  1 H  s          
     4     -0.052003  1 H  py                 3     -0.045621  1 H  px         

 Vector    4  Occ=1.674727D-03  E= 0.000000D+00
              MO Center= -3.1D-03, -3.5D-03,  1.3D-03, r^2= 2.5D+00
   Bfn.  Coefficient  Atom+Function         Bfn.  Coefficient  Atom+Function  
  ----- ------------  ---------------      ----- ------------  ---------------
     2      0.975149  1 H  s                  7     -0.977661  2 H  s          
     6      0.916723  2 H  s                  1     -0.910980  1 H  s          
     5     -0.084475  1 H  pz                 8     -0.048325  2 H  px         
    10     -0.039565  2 H  pz         

 Vector    5  Occ=4.382863D-04  E= 0.000000D+00
              MO Center= -4.8D-04,  1.0D-03,  3.4D-02, r^2= 1.3D+00
   Bfn.  Coefficient  Atom+Function         Bfn.  Coefficient  Atom+Function  
  ----- ------------  ---------------      ----- ------------  ---------------
    10     -0.714504  2 H  pz                 5      0.695707  1 H  pz         
     7     -0.100286  2 H  s                  6      0.064165  2 H  s          
     9     -0.056766  2 H  py                 2     -0.040547  1 H  s          

 Vector    6  Occ=3.093751D-04  E= 0.000000D+00
              MO Center= -1.3D-03, -9.2D-03, -2.8D-02, r^2= 1.3D+00
   Bfn.  Coefficient  Atom+Function         Bfn.  Coefficient  Atom+Function  
  ----- ------------  ---------------      ----- ------------  ---------------
     4     -0.705398  1 H  py                 9     -0.691402  2 H  py         
     3     -0.110108  1 H  px                 8     -0.084529  2 H  px         
     5     -0.051956  1 H  pz                 1      0.048512  1 H  s          
     2     -0.035984  1 H  s          

 Vector    7  Occ=2.988955D-05  E= 0.000000D+00
              MO Center= -2.0D-03,  3.1D-04, -1.2D-03, r^2= 1.3D+00
   Bfn.  Coefficient  Atom+Function         Bfn.  Coefficient  Atom+Function  
  ----- ------------  ---------------      ----- ------------  ---------------
     3     -0.702672  1 H  px                 8     -0.691316  2 H  px         
     9      0.138061  2 H  py                 2     -0.078055  1 H  s          
     1      0.064850  1 H  s                  4      0.059145  1 H  py         
    10     -0.047987  2 H  pz                 7      0.042214  2 H  s          

 Vector    8  Occ=6.787503D-20  E= 0.000000D+00
              MO Center= -1.0D-03, -3.1D-03,  6.5D-02, r^2= 1.3D+00
   Bfn.  Coefficient  Atom+Function         Bfn.  Coefficient  Atom+Function  
  ----- ------------  ---------------      ----- ------------  ---------------
     9      0.651001  2 H  py                 4     -0.638022  1 H  py         
     8      0.324401  2 H  px                 3     -0.244571  1 H  px         
     7     -0.077616  2 H  s                  6      0.071428  2 H  s          
    10     -0.025793  2 H  pz         

 Vector    9  Occ=1.575453D-04  E= 0.000000D+00
              MO Center= -3.6D-03,  1.6D-03, -3.7D-02, r^2= 1.3D+00
   Bfn.  Coefficient  Atom+Function         Bfn.  Coefficient  Atom+Function  
  ----- ------------  ---------------      ----- ------------  ---------------
     3      0.656982  1 H  px                 8     -0.635186  2 H  px         
     4     -0.295838  1 H  py                 9      0.274875  2 H  py         
     7      0.036655  2 H  s                 10     -0.036745  2 H  pz         
     6     -0.030530  2 H  s          

 Vector   10  Occ=3.346624D-04  E= 0.000000D+00
              MO Center=  1.1D-03, -5.9D-04, -2.0D-02, r^2= 1.3D+00
   Bfn.  Coefficient  Atom+Function         Bfn.  Coefficient  Atom+Function  
  ----- ------------  ---------------      ----- ------------  ---------------
     5     -0.718533  1 H  pz                10     -0.703361  2 H  pz         
     2     -0.247768  1 H  s                  7      0.246999  2 H  s          
     1      0.147707  1 H  s                  6     -0.143282  2 H  s          
     8      0.058409  2 H  px                 4      0.033781  1 H  py         


 Task  times  cpu:      209.9s     wall:      272.0s
 Summary of allocated global arrays
-----------------------------------
  No active global arrays



                         GA Statistics for process    0
                         ------------------------------

       create   destroy   get      put      acc     scatter   gather  read&inc
calls:   44       44     5.84e+07 2.66e+04 3.34e+04    0        0       11     
number of processes/call 1.00e+00 1.00e+00 1.00e+00 0.00e+00 0.00e+00
bytes total:             4.67e+10 2.67e+07 3.33e+07 0.00e+00 0.00e+00 8.80e+01
bytes remote:            0.00e+00 0.00e+00 0.00e+00 0.00e+00 0.00e+00 0.00e+00
Max memory consumed for GA by this process: 268000 bytes
MA_summarize_allocated_blocks: starting scan ...
MA_summarize_allocated_blocks: scan completed: 0 heap blocks, 0 stack blocks
MA usage statistics:

	allocation statistics:
					      heap	     stack
					      ----	     -----
	current number of blocks	         0	         0
	maximum number of blocks	        19	        17
	current total bytes		         0	         0
	maximum total bytes		   3205416	  22508616
	maximum total K-bytes		      3206	     22509
	maximum total M-bytes		         4	        23


                                NWChem Input Module
                                -------------------





                                     CITATION
                                     --------
                Please cite the following reference when publishing
                           results obtained with NWChem:

                 M. Valiev, E.J. Bylaska, N. Govind, K. Kowalski,
              T.P. Straatsma, H.J.J. van Dam, D. Wang, J. Nieplocha,
                        E. Apra, T.L. Windus, W.A. de Jong
                 "NWChem: a comprehensive and scalable open-source
                  solution for large scale molecular simulations"
                      Comput. Phys. Commun. 181, 1477 (2010)
                           doi:10.1016/j.cpc.2010.04.018

                                      AUTHORS
                                      -------
          E. Apra, E. J. Bylaska, W. A. de Jong, N. Govind, K. Kowalski,
       T. P. Straatsma, M. Valiev, H. J. J. van Dam, D. Wang, T. L. Windus,
        J. Hammond, J. Autschbach, K. Bhaskaran-Nair, J. Brabec, K. Lopata,
    S. A. Fischer, S. Krishnamoorthy, M. Jacquelin, W. Ma, M. Klemm, O. Villa,
      Y. Chen, V. Anisimov, F. Aquino, S. Hirata, M. T. Hackler, V. Konjkov,
      T. Risthaus, M. Malagoli, A. Marenich, A. Otero-de-la-Roza, J. Mullin,
        P. Nichols, R. Peverati, J. Pittner, Y. Zhao, P.-D. Fan, A. Fonari,
       M. Williamson, R. J. Harrison, J. R. Rehr, M. Dupuis, D. Silverstein,
    D. M. A. Smith, J. Nieplocha, V. Tipparaju, M. Krishnan, B. E. Van Kuiken,
        A. Vazquez-Mayagoitia, L. Jensen, M. Swart, Q. Wu, T. Van Voorhis,
     A. A. Auer, M. Nooijen, L. D. Crosby, E. Brown, G. Cisneros, G. I. Fann,
   H. Fruchtl, J. Garza, K. Hirao, R. A. Kendall, J. A. Nichols, K. Tsemekhman,
    K. Wolinski, J. Anchell, D. E. Bernholdt, P. Borowski, T. Clark, D. Clerc,
   H. Dachsel, M. J. O. Deegan, K. Dyall, D. Elwood, E. Glendening, M. Gutowski,
   A. C. Hess, J. Jaffe, B. G. Johnson, J. Ju, R. Kobayashi, R. Kutteh, Z. Lin,
   R. Littlefield, X. Long, B. Meng, T. Nakajima, S. Niu, L. Pollack, M. Rosing,
   K. Glaesemann, G. Sandrone, M. Stave, H. Taylor, G. Thomas, J. H. van Lenthe,
                               A. T. Wong, Z. Zhang.

 Total times  cpu:      209.9s     wall:      272.0s
