 argument  1 = input-wf.nw



============================== echo of input deck ==============================
echo
start wfn1_dat
geometry units au noautoz
  H 0 0 -1.99434600000000000000
  H 0 0  1.99434600000000000000
  symmetry cs
end
basis
  H library 6-31g**
end
set wfn1:input_vectors "atomic"
set wfn1:solver "monte-carlo"
set wfn1:print_error F
set wfn1:t_initial 0.1
#set wfn1:corr_expr "wfn1_mx"
set wfn1:corr_expr "wfn1c"
set wfn1:t_bath 0.0
set wfn1:maxit  20000
task wfn1 energy
================================================================================


                                         
                                         


              Northwest Computational Chemistry Package (NWChem) 6.8
              ------------------------------------------------------


                    Environmental Molecular Sciences Laboratory
                       Pacific Northwest National Laboratory
                                Richland, WA 99352

                              Copyright (c) 1994-2015
                       Pacific Northwest National Laboratory
                            Battelle Memorial Institute

             NWChem is an open-source computational chemistry package
                        distributed under the terms of the
                      Educational Community License (ECL) 2.0
             A copy of the license is included with this distribution
                              in the LICENSE.TXT file

                                  ACKNOWLEDGMENT
                                  --------------

            This software and its documentation were developed at the
            EMSL at Pacific Northwest National Laboratory, a multiprogram
            national laboratory, operated for the U.S. Department of Energy
            by Battelle under Contract Number DE-AC05-76RL01830. Support
            for this work was provided by the Department of Energy Office
            of Biological and Environmental Research, Office of Basic
            Energy Sciences, and the Office of Advanced Scientific Computing.


           Job information
           ---------------

    hostname        = erato
    program         = ../../../bin/LINUX64/nwchem
    date            = Mon Mar  1 21:35:25 2021

    compiled        = Sun_Feb_28_18:02:42_2021
    source          = /home/hvandam/nwchem-1-wfn1
    nwchem branch   = Development
    nwchem revision = nwchem_on_git-124-gad72d19fff205e319ffbbf2bca37a04ded6ad57b
    ga revision     = nwchem_on_git-124-gad72d19
    use scalapack   = F
    input           = input-wf.nw
    prefix          = wfn1_dat.
    data base       = ./wfn1_dat.db
    status          = startup
    nproc           =        1
    time left       =     -1s



           Memory information
           ------------------

    heap     =   13107200 doubles =    100.0 Mbytes
    stack    =   13107197 doubles =    100.0 Mbytes
    global   =   26214400 doubles =    200.0 Mbytes (distinct from heap & stack)
    total    =   52428797 doubles =    400.0 Mbytes
    verify   = yes
    hardfail = no 


           Directory information
           ---------------------

  0 permanent = .
  0 scratch   = .




                                NWChem Input Module
                                -------------------


 Turning off AUTOSYM since
 SYMMETRY directive was detected!



                             Geometry "geometry" -> ""
                             -------------------------

 Output coordinates in a.u. (scale by  1.000000000 to convert to a.u.)

  No.       Tag          Charge          X              Y              Z
 ---- ---------------- ---------- -------------- -------------- --------------
    1 H                    1.0000     0.00000000     0.00000000    -1.99434600
    2 H                    1.0000     0.00000000     0.00000000     1.99434600

      Atomic Mass 
      ----------- 

      H                  1.007825


 Effective nuclear repulsion energy (a.u.)       0.2507087536

            Nuclear Dipole moment (a.u.) 
            ----------------------------
        X                 Y               Z
 ---------------- ---------------- ----------------
     0.0000000000     0.0000000000     0.0000000000

      Symmetry information
      --------------------

 Group name             Cs        
 Group number              2
 Group order               2
 No. of unique centers     1

      Symmetry unique atoms

     1


            XYZ format geometry
            -------------------
     2
 geometry
 H                     0.00000000     0.00000000    -1.05536253
 H                     0.00000000     0.00000000     1.05536253

                      Basis "ao basis" -> "" (cartesian)
                      -----
  H (Hydrogen)
  ------------
            Exponent  Coefficients 
       -------------- ---------------------------------------------------------
  1 S  1.87311370E+01  0.033495
  1 S  2.82539370E+00  0.234727
  1 S  6.40121700E-01  0.813757

  2 S  1.61277800E-01  1.000000

  3 P  1.10000000E+00  1.000000



 Summary of "ao basis" -> "" (cartesian)
 ------------------------------------------------------------------------------
       Tag                 Description            Shells   Functions and Types
 ---------------- ------------------------------  ------  ---------------------
 H                          6-31g**                  3        5   2s1p



                                NWChem WFN1 Module
                                ------------------



          No. of electrons :     2
           Alpha electrons :     1
            Beta electrons :     1
          Charge           :     0
          Spin multiplicity:     1

 HvD: wfn1_inpdft
 HvD: nquad_task =                     1
 HvD: iangquad   =                     0
 HvD: gridtype   = user      
 HvD: leb        =  T
 HvD: radgrid    = murakn    
 HvD: trunc_neigh=  T
 HvD: lssw       =  T
 HvD: whichssw   = erf1    
 HvD: mxnrad     =                     0
 HvD: mxnang     =                     0
 HVD: wfn1: movecs_in  = atomic                                                                                                                                                                                                                                                          
 HVD: wfn1: movecs_out = ./wfn1_dat.movecs                                                                                                                                                                                                                                               

      Superposition of Atomic Density Guess
      -------------------------------------

 Sum of atomic energies:          -0.99646508

      Non-variational initial energy
      ------------------------------

 Total energy =      -0.690516
 1-e energy   =      -1.497582
 2-e energy   =       0.556357
 HOMO         =      -0.256927
 LUMO         =      -0.118482

 iteration              energy           error
 ---------              ------           -----
         0         -0.89072613        0.200000
         1         -0.89848344        0.200000
         2         -0.89936936        0.200000
         3         -0.90017157        0.200000
         4         -0.90135306        0.200000
         5         -0.90207850        0.200000
         6         -0.90362576        0.200000
         7         -0.90556890        0.200000
         8         -0.90611009        0.200000
         9         -0.90626719        0.200000
        10         -0.90632354        0.200000
        11         -0.90823102        0.200000
        12         -0.90892519        0.200000
        13         -0.90951376        0.200000
        14         -0.91083568        0.200000
        15         -0.91330953        0.200000
        16         -0.91368171        0.200000
        17         -0.91470131        0.200000
        18         -0.91486816        0.200000
        19         -0.91514508        0.200000
        20         -0.91538993        0.200000
        21         -0.91588895        0.200000
        22         -0.91665431        0.200000
        23         -0.91681801        0.171449
        24         -0.91740228        0.171449
        25         -0.91813452        0.158740
        26         -0.91827690        0.158740
        27         -0.91831316        0.146973
        28         -0.91832419        0.136079
        29         -0.91833445        0.136079
        30         -0.91857944        0.136079
        31         -0.91862379        0.100000
        32         -0.91868736        0.085724
        33         -0.91875899        0.079370
        34         -0.91877013        0.079370
        35         -0.91886607        0.079370
        36         -0.91902115        0.079370
        37         -0.91907805        0.079370
        38         -0.91914216        0.079370
        39         -0.91943165        0.079370
        40         -0.91943612        0.079370
        41         -0.91958346        0.079370
        42         -0.91964477        0.079370
        43         -0.91970531        0.079370
        44         -0.91971245        0.079370
        45         -0.91983742        0.079370
        46         -0.91986811        0.079370
        47         -0.91993219        0.079370
        48         -0.92005420        0.079370
        49         -0.92011052        0.079370
        50         -0.92014428        0.079370
        51         -0.92031589        0.079370
        52         -0.92054165        0.079370
        53         -0.92056881        0.079370
        54         -0.92062585        0.079370
        55         -0.92072352        0.079370
        56         -0.92088831        0.079370
        57         -0.92101711        0.079370
        58         -0.92113092        0.079370
        59         -0.92116022        0.079370
        60         -0.92119598        0.079370
        61         -0.92123160        0.079370
        62         -0.92127195        0.079370
        63         -0.92133423        0.079370
        64         -0.92147977        0.073487
        65         -0.92160287        0.073487
        66         -0.92171807        0.073487
        67         -0.92172575        0.068040
        68         -0.92178817        0.068040
        69         -0.92189446        0.068040
        70         -0.92195338        0.068040
        71         -0.92198077        0.068040
        72         -0.92204690        0.068040
        73         -0.92205560        0.068040
        74         -0.92223480        0.068040
        75         -0.92227466        0.068040
        76         -0.92232890        0.068040
        77         -0.92237572        0.068040
        78         -0.92240065        0.068040
        79         -0.92241229        0.068040
        80         -0.92256014        0.058326
        81         -0.92257373        0.058326
        82         -0.92257510        0.054003
        83         -0.92263086        0.054003
        84         -0.92265281        0.054003
        85         -0.92267800        0.054003
        86         -0.92268665        0.054003
        87         -0.92271736        0.054003
        88         -0.92273461        0.050000
        89         -0.92274817        0.050000
        90         -0.92276712        0.050000
        91         -0.92284244        0.050000
        92         -0.92289280        0.050000
        93         -0.92298485        0.046294
        94         -0.92301621        0.046294
        95         -0.92301871        0.046294
        96         -0.92308536        0.046294
        97         -0.92309883        0.046294
        98         -0.92311275        0.046294
        99         -0.92311514        0.046294
       100         -0.92313518        0.046294
       101         -0.92314778        0.046294
       102         -0.92318489        0.046294
       103         -0.92322154        0.042862
       104         -0.92323234        0.042862
       105         -0.92323516        0.042862
       106         -0.92324956        0.042862
       107         -0.92326734        0.042862
       108         -0.92328084        0.042862
       109         -0.92328774        0.042862
       110         -0.92332174        0.042862
       111         -0.92342541        0.042862
       112         -0.92345970        0.042862
       113         -0.92347798        0.036743
       114         -0.92350891        0.036743
       115         -0.92353129        0.036743
       116         -0.92356032        0.034020
       117         -0.92358516        0.034020
       118         -0.92359793        0.034020
       119         -0.92364133        0.034020
       120         -0.92364710        0.034020
       121         -0.92365282        0.034020
       122         -0.92367437        0.034020
       123         -0.92368519        0.034020
       124         -0.92370115        0.034020
       125         -0.92370398        0.034020
       126         -0.92371057        0.034020
       127         -0.92373371        0.031498
       128         -0.92373723        0.031498
       129         -0.92374151        0.031498
       130         -0.92375712        0.031498
       131         -0.92375874        0.029163
       132         -0.92379127        0.029163
       133         -0.92380048        0.029163
       134         -0.92382139        0.027001
       135         -0.92382628        0.023147
       136         -0.92383674        0.023147
       137         -0.92384291        0.023147
       138         -0.92384870        0.023147
       139         -0.92385882        0.023147
       140         -0.92386145        0.021431
       141         -0.92386201        0.021431
       142         -0.92388540        0.021431
       143         -0.92389114        0.021431
       144         -0.92389542        0.019843
       145         -0.92391925        0.019843
       146         -0.92392216        0.018372
       147         -0.92392275        0.018372
       148         -0.92392912        0.015749
       149         -0.92393095        0.015749
       150         -0.92393527        0.015749
       151         -0.92393736        0.015749
       152         -0.92394250        0.015749
       153         -0.92394487        0.015749
       154         -0.92394695        0.015749
       155         -0.92395484        0.015749
       156         -0.92395784        0.015749
       157         -0.92396015        0.015749
       158         -0.92396413        0.015749
       159         -0.92396837        0.015749
       160         -0.92397745        0.015749
       161         -0.92398854        0.015749
       162         -0.92399129        0.015749
       163         -0.92399451        0.015749
       164         -0.92399534        0.015749
       165         -0.92399640        0.014582
       166         -0.92399906        0.014582
       167         -0.92400277        0.014582
       168         -0.92400618        0.014582
       169         -0.92400963        0.014582
       170         -0.92401215        0.014582
       171         -0.92401476        0.014582
       172         -0.92401523        0.014582
       173         -0.92401572        0.014582
       174         -0.92401575        0.014582
       175         -0.92402483        0.014582
       176         -0.92403004        0.013501
       177         -0.92403384        0.013501
       178         -0.92403455        0.013501
       179         -0.92404302        0.013501
       180         -0.92404491        0.013501
       181         -0.92404920        0.013501
       182         -0.92405173        0.013501
       183         -0.92405502        0.013501
       184         -0.92406080        0.013501
       185         -0.92406111        0.013501
       186         -0.92406124        0.013501
       187         -0.92406450        0.013501
       188         -0.92406466        0.013501
       189         -0.92407140        0.013501
       190         -0.92407204        0.012500
       191         -0.92407347        0.012500
       192         -0.92407401        0.012500
       193         -0.92407592        0.012500
       194         -0.92407715        0.012500
       195         -0.92407807        0.012500
       196         -0.92408266        0.012500
       197         -0.92408333        0.012500
       198         -0.92408779        0.012500
       199         -0.92408998        0.012500
       200         -0.92409060        0.010716
       201         -0.92409324        0.009921
       202         -0.92409372        0.009921
       203         -0.92409686        0.009921
       204         -0.92409713        0.009921
       205         -0.92409812        0.009921
       206         -0.92409964        0.009921
       207         -0.92410076        0.009921
       208         -0.92410204        0.009921
       209         -0.92410220        0.009921
       210         -0.92410365        0.009921
       211         -0.92410644        0.009921
       212         -0.92411275        0.009921
       213         -0.92411279        0.009921
       214         -0.92411897        0.009921
       215         -0.92411926        0.009921
       216         -0.92412061        0.009921
       217         -0.92412274        0.009921
       218         -0.92412512        0.009921
       219         -0.92412838        0.009921
       220         -0.92412848        0.009921
       221         -0.92412901        0.009921
       222         -0.92413001        0.009921
       223         -0.92413243        0.009921
       224         -0.92413248        0.009921
       225         -0.92413249        0.009921
       226         -0.92413393        0.009921
       227         -0.92413930        0.009921
       228         -0.92413997        0.009186
       229         -0.92414063        0.009186
       230         -0.92414232        0.009186
       231         -0.92414455        0.009186
       232         -0.92414481        0.009186
       233         -0.92414638        0.009186
       234         -0.92414703        0.009186
       235         -0.92414823        0.009186
       236         -0.92415042        0.009186
       237         -0.92415079        0.009186
       238         -0.92415118        0.009186
       239         -0.92415238        0.009186
       240         -0.92415483        0.009186
       241         -0.92415513        0.008505
       242         -0.92415797        0.008505
       243         -0.92415835        0.008505
       244         -0.92415872        0.008505
       245         -0.92415908        0.008505
       246         -0.92415982        0.008505
       247         -0.92415986        0.008505
       248         -0.92415997        0.008505
       249         -0.92416166        0.008505
       250         -0.92416263        0.008505
       251         -0.92416294        0.008505
       252         -0.92416592        0.008505
       253         -0.92416631        0.008505
       254         -0.92416647        0.008505
       255         -0.92416676        0.008505
       256         -0.92416738        0.008505
       257         -0.92416764        0.008505
       258         -0.92417235        0.008505
       259         -0.92417378        0.008505
       260         -0.92417469        0.008505
       261         -0.92417635        0.007875
       262         -0.92417636        0.007875
       263         -0.92417706        0.007291
       264         -0.92417708        0.007291
       265         -0.92417807        0.006750
       266         -0.92417822        0.006750
       267         -0.92417884        0.006750
       268         -0.92417905        0.006750
       269         -0.92418032        0.006750
       270         -0.92418118        0.006750
       271         -0.92418195        0.006750
       272         -0.92418260        0.006750
       273         -0.92418271        0.006750
       274         -0.92418348        0.006750
       275         -0.92418353        0.006750
       276         -0.92418430        0.006750
       277         -0.92418544        0.006750
       278         -0.92418618        0.006750
       279         -0.92418650        0.006750
       280         -0.92418735        0.006750
       281         -0.92418980        0.006750
       282         -0.92419104        0.006750
       283         -0.92419158        0.006750
       284         -0.92419218        0.006750
       285         -0.92419295        0.006750
       286         -0.92419300        0.006750
       287         -0.92419331        0.006750
       288         -0.92419474        0.006750
       289         -0.92419557        0.006750
       290         -0.92419615        0.006750
       291         -0.92419783        0.006250
       292         -0.92419815        0.006250
       293         -0.92419842        0.006250
       294         -0.92419895        0.006250
       295         -0.92420008        0.005787
       296         -0.92420084        0.005787
       297         -0.92420149        0.005787
       298         -0.92420269        0.005787
       299         -0.92420342        0.005358
       300         -0.92420464        0.005358
       301         -0.92420531        0.005358
       302         -0.92420565        0.005358
       303         -0.92420568        0.005358
       304         -0.92420614        0.005358
       305         -0.92420614        0.005358
       306         -0.92420626        0.005358
       307         -0.92420661        0.005358
       308         -0.92420764        0.005358
       309         -0.92420856        0.005358
       310         -0.92420857        0.005358
       311         -0.92420885        0.005358
       312         -0.92420926        0.005358
       313         -0.92420955        0.005358
       314         -0.92420966        0.005358
       315         -0.92421102        0.005358
       316         -0.92421105        0.005358
       317         -0.92421124        0.005358
       318         -0.92421151        0.005358
       319         -0.92421175        0.004593
       320         -0.92421275        0.004593
       321         -0.92421349        0.004593
       322         -0.92421370        0.004593
       323         -0.92421428        0.004593
       324         -0.92421503        0.004593
       325         -0.92421594        0.004593
       326         -0.92421607        0.004593
       327         -0.92421608        0.004593
       328         -0.92421643        0.004593
       329         -0.92421701        0.004593
       330         -0.92421718        0.004593
       331         -0.92421718        0.004593
       332         -0.92421825        0.004593
       333         -0.92421839        0.004593
       334         -0.92421866        0.004593
       335         -0.92421912        0.004593
       336         -0.92421940        0.004593
       337         -0.92421957        0.004593
       338         -0.92421984        0.004593
       339         -0.92422012        0.004593
       340         -0.92422095        0.004593
       341         -0.92422139        0.004593
       342         -0.92422150        0.004593
       343         -0.92422203        0.004593
       344         -0.92422234        0.004593
       345         -0.92422286        0.004593
       346         -0.92422353        0.004593
       347         -0.92422392        0.004593
       348         -0.92422442        0.004593
       349         -0.92422505        0.004252
       350         -0.92422506        0.004252
       351         -0.92422533        0.004252
       352         -0.92422638        0.004252
       353         -0.92422680        0.004252
       354         -0.92422686        0.004252
       355         -0.92422701        0.004252
       356         -0.92422735        0.004252
       357         -0.92422737        0.004252
       358         -0.92422780        0.004252
       359         -0.92422825        0.004252
       360         -0.92422840        0.004252
       361         -0.92422842        0.004252
       362         -0.92422851        0.004252
       363         -0.92422864        0.004252
       364         -0.92422914        0.004252
       365         -0.92422937        0.004252
       366         -0.92423024        0.004252
       367         -0.92423121        0.004252
       368         -0.92423147        0.004252
       369         -0.92423234        0.004252
       370         -0.92423275        0.004252
       371         -0.92423336        0.004252
       372         -0.92423343        0.004252
       373         -0.92423360        0.003937
       374         -0.92423412        0.003937
       375         -0.92423447        0.003937
       376         -0.92423506        0.003937
       377         -0.92423544        0.003937
       378         -0.92423574        0.003937
       379         -0.92423580        0.003937
       380         -0.92423600        0.003937
       381         -0.92423628        0.003937
       382         -0.92423656        0.003937
       383         -0.92423660        0.003937
       384         -0.92423667        0.003937
       385         -0.92423709        0.003937
       386         -0.92423711        0.003937
       387         -0.92423725        0.003937
       388         -0.92423767        0.003937
       389         -0.92423782        0.003937
       390         -0.92423810        0.003937
       391         -0.92423817        0.003937
       392         -0.92423846        0.003645
       393         -0.92423862        0.003125
       394         -0.92423868        0.003125
       395         -0.92423873        0.003125
       396         -0.92423911        0.003125
       397         -0.92423920        0.003125
       398         -0.92423942        0.003125
       399         -0.92423954        0.003125
       400         -0.92423955        0.003125
       401         -0.92423978        0.002893
       402         -0.92423996        0.002893
       403         -0.92423997        0.002893
       404         -0.92424026        0.002893
       405         -0.92424045        0.002893
       406         -0.92424083        0.002893
       407         -0.92424090        0.002893
       408         -0.92424164        0.002893
       409         -0.92424166        0.002679
       410         -0.92424224        0.002679
       411         -0.92424248        0.002679
       412         -0.92424277        0.002679
       413         -0.92424304        0.002679
       414         -0.92424317        0.002679
       415         -0.92424328        0.002679
       416         -0.92424367        0.002679
       417         -0.92424370        0.002679
       418         -0.92424388        0.002679
       419         -0.92424408        0.002679
       420         -0.92424408        0.002679
       421         -0.92424416        0.002679
       422         -0.92424420        0.002679
       423         -0.92424429        0.002679
       424         -0.92424456        0.002679
       425         -0.92424471        0.002679
       426         -0.92424490        0.002679
       427         -0.92424493        0.002679
       428         -0.92424508        0.002679
       429         -0.92424556        0.002679
       430         -0.92424570        0.002679
       431         -0.92424577        0.002480
       432         -0.92424580        0.002480
       433         -0.92424626        0.002480
       434         -0.92424652        0.002480
       435         -0.92424683        0.002480
       436         -0.92424712        0.002480
       437         -0.92424715        0.002480
       438         -0.92424737        0.002480
       439         -0.92424744        0.002480
       440         -0.92424754        0.002480
       441         -0.92424767        0.002480
       442         -0.92424782        0.002480
       443         -0.92424836        0.002480
       444         -0.92424856        0.002480
       445         -0.92424875        0.002480
       446         -0.92424898        0.002480
       447         -0.92424905        0.002480
       448         -0.92424917        0.002480
       449         -0.92424925        0.002480
       450         -0.92424939        0.002480
       451         -0.92424975        0.002480
       452         -0.92424990        0.002480
       453         -0.92425001        0.002480
       454         -0.92425018        0.002480
       455         -0.92425057        0.002480
       456         -0.92425064        0.002480
       457         -0.92425089        0.002480
       458         -0.92425096        0.002480
       459         -0.92425097        0.002480
       460         -0.92425114        0.002480
       461         -0.92425173        0.002480
       462         -0.92425194        0.002296
       463         -0.92425213        0.002296
       464         -0.92425220        0.002126
       465         -0.92425240        0.002126
       466         -0.92425241        0.002126
       467         -0.92425255        0.002126
       468         -0.92425258        0.002126
       469         -0.92425265        0.002126
       470         -0.92425289        0.002126
       471         -0.92425295        0.002126
       472         -0.92425307        0.002126
       473         -0.92425309        0.002126
       474         -0.92425337        0.002126
       475         -0.92425345        0.002126
       476         -0.92425367        0.002126
       477         -0.92425368        0.002126
       478         -0.92425371        0.002126
       479         -0.92425381        0.002126
       480         -0.92425387        0.002126
       481         -0.92425431        0.002126
       482         -0.92425432        0.002126
       483         -0.92425438        0.002126
       484         -0.92425440        0.002126
       485         -0.92425467        0.002126
       486         -0.92425467        0.002126
       487         -0.92425471        0.002126
       488         -0.92425479        0.002126
       489         -0.92425501        0.002126
       490         -0.92425515        0.002126
       491         -0.92425520        0.002126
       492         -0.92425526        0.002126
       493         -0.92425556        0.002126
       494         -0.92425556        0.002126
       495         -0.92425557        0.002126
       496         -0.92425574        0.002126
       497         -0.92425595        0.002126
       498         -0.92425600        0.002126
       499         -0.92425650        0.002126
       500         -0.92425664        0.002126
       501         -0.92425681        0.002126
       502         -0.92425686        0.002126
       503         -0.92425698        0.002126
       504         -0.92425705        0.002126
       505         -0.92425711        0.002126
       506         -0.92425725        0.002126
       507         -0.92425772        0.002126
       508         -0.92425781        0.002126
       509         -0.92425785        0.002126
       510         -0.92425790        0.002126
       511         -0.92425799        0.002126
       512         -0.92425815        0.002126
       513         -0.92425820        0.002126
       514         -0.92425830        0.002126
       515         -0.92425836        0.002126
       516         -0.92425872        0.002126
       517         -0.92425890        0.002126
       518         -0.92425904        0.002126
       519         -0.92425920        0.001969
       520         -0.92425932        0.001969
       521         -0.92425943        0.001969
       522         -0.92425961        0.001969
       523         -0.92425961        0.001969
       524         -0.92425992        0.001969
       525         -0.92426007        0.001969
       526         -0.92426033        0.001969
       527         -0.92426035        0.001969
       528         -0.92426047        0.001969
       529         -0.92426060        0.001969
       530         -0.92426074        0.001969
       531         -0.92426098        0.001969
       532         -0.92426101        0.001969
       533         -0.92426102        0.001969
       534         -0.92426115        0.001969
       535         -0.92426121        0.001969
       536         -0.92426148        0.001969
       537         -0.92426166        0.001969
       538         -0.92426173        0.001969
       539         -0.92426189        0.001969
       540         -0.92426204        0.001969
       541         -0.92426208        0.001969
       542         -0.92426222        0.001969
       543         -0.92426226        0.001969
       544         -0.92426241        0.001969
       545         -0.92426254        0.001969
       546         -0.92426259        0.001969
       547         -0.92426267        0.001969
       548         -0.92426269        0.001969
       549         -0.92426273        0.001969
       550         -0.92426280        0.001969
       551         -0.92426283        0.001969
       552         -0.92426291        0.001969
       553         -0.92426303        0.001969
       554         -0.92426310        0.001969
       555         -0.92426325        0.001969
       556         -0.92426345        0.001969
       557         -0.92426345        0.001969
       558         -0.92426348        0.001969
       559         -0.92426350        0.001969
       560         -0.92426377        0.001969
       561         -0.92426387        0.001969
       562         -0.92426402        0.001969
       563         -0.92426423        0.001969
       564         -0.92426429        0.001969
       565         -0.92426454        0.001969
       566         -0.92426455        0.001969
       567         -0.92426460        0.001969
       568         -0.92426466        0.001969
       569         -0.92426486        0.001969
       570         -0.92426489        0.001969
       571         -0.92426492        0.001969
       572         -0.92426502        0.001969
       573         -0.92426505        0.001969
       574         -0.92426520        0.001969
       575         -0.92426521        0.001969
       576         -0.92426538        0.001969
       577         -0.92426554        0.001969
       578         -0.92426562        0.001969
       579         -0.92426566        0.001823
       580         -0.92426576        0.001823
       581         -0.92426592        0.001823
       582         -0.92426594        0.001823
       583         -0.92426603        0.001823
       584         -0.92426615        0.001823
       585         -0.92426642        0.001823
       586         -0.92426643        0.001823
       587         -0.92426646        0.001823
       588         -0.92426649        0.001823
       589         -0.92426654        0.001823
       590         -0.92426655        0.001823
       591         -0.92426657        0.001823
       592         -0.92426675        0.001823
       593         -0.92426685        0.001823
       594         -0.92426711        0.001823
       595         -0.92426749        0.001823
       596         -0.92426759        0.001823
       597         -0.92426766        0.001823
       598         -0.92426770        0.001823
       599         -0.92426785        0.001823
       600         -0.92426793        0.001823
       601         -0.92426819        0.001823
       602         -0.92426836        0.001823
       603         -0.92426841        0.001823
       604         -0.92426846        0.001823
       605         -0.92426858        0.001823
       606         -0.92426862        0.001823
       607         -0.92426875        0.001823
       608         -0.92426888        0.001823
       609         -0.92426892        0.001823
       610         -0.92426912        0.001823
       611         -0.92426914        0.001823
       612         -0.92426934        0.001823
       613         -0.92426957        0.001823
       614         -0.92426959        0.001688
       615         -0.92426986        0.001688
       616         -0.92426999        0.001688
       617         -0.92427005        0.001688
       618         -0.92427009        0.001688
       619         -0.92427016        0.001688
       620         -0.92427019        0.001688
       621         -0.92427048        0.001688
       622         -0.92427052        0.001688
       623         -0.92427070        0.001688
       624         -0.92427091        0.001688
       625         -0.92427094        0.001688
       626         -0.92427097        0.001688
       627         -0.92427105        0.001688
       628         -0.92427115        0.001688
       629         -0.92427127        0.001688
       630         -0.92427130        0.001688
       631         -0.92427142        0.001688
       632         -0.92427156        0.001688
       633         -0.92427168        0.001688
       634         -0.92427171        0.001688
       635         -0.92427177        0.001688
       636         -0.92427192        0.001688
       637         -0.92427214        0.001688
       638         -0.92427227        0.001688
       639         -0.92427232        0.001688
       640         -0.92427234        0.001688
       641         -0.92427242        0.001688
       642         -0.92427257        0.001688
       643         -0.92427271        0.001688
       644         -0.92427278        0.001688
       645         -0.92427300        0.001688
       646         -0.92427330        0.001688
       647         -0.92427331        0.001688
       648         -0.92427338        0.001688
       649         -0.92427360        0.001688
       650         -0.92427370        0.001688
       651         -0.92427378        0.001688
       652         -0.92427396        0.001688
       653         -0.92427399        0.001688
       654         -0.92427412        0.001688
       655         -0.92427430        0.001688
       656         -0.92427436        0.001688
       657         -0.92427451        0.001688
       658         -0.92427454        0.001688
       659         -0.92427463        0.001688
       660         -0.92427467        0.001688
       661         -0.92427475        0.001688
       662         -0.92427477        0.001688
       663         -0.92427496        0.001688
       664         -0.92427504        0.001688
       665         -0.92427506        0.001688
       666         -0.92427517        0.001688
       667         -0.92427528        0.001688
       668         -0.92427539        0.001688
       669         -0.92427549        0.001688
       670         -0.92427586        0.001688
       671         -0.92427588        0.001688
       672         -0.92427589        0.001688
       673         -0.92427597        0.001688
       674         -0.92427604        0.001688
       675         -0.92427606        0.001688
       676         -0.92427612        0.001688
       677         -0.92427614        0.001688
       678         -0.92427621        0.001688
       679         -0.92427629        0.001688
       680         -0.92427641        0.001688
       681         -0.92427648        0.001688
       682         -0.92427658        0.001688
       683         -0.92427683        0.001688
       684         -0.92427699        0.001688
       685         -0.92427708        0.001688
       686         -0.92427724        0.001688
       687         -0.92427732        0.001688
       688         -0.92427765        0.001688
       689         -0.92427767        0.001688
       690         -0.92427771        0.001688
       691         -0.92427796        0.001688
       692         -0.92427825        0.001688
       693         -0.92427830        0.001688
       694         -0.92427834        0.001688
       695         -0.92427836        0.001688
       696         -0.92427838        0.001688
       697         -0.92427841        0.001688
       698         -0.92427850        0.001688
       699         -0.92427863        0.001688
       700         -0.92427884        0.001688
       701         -0.92427901        0.001563
       702         -0.92427916        0.001563
       703         -0.92427930        0.001563
       704         -0.92427956        0.001563
       705         -0.92427976        0.001563
       706         -0.92427984        0.001563
       707         -0.92427992        0.001563
       708         -0.92427993        0.001563
       709         -0.92428021        0.001563
       710         -0.92428035        0.001563
       711         -0.92428048        0.001563
       712         -0.92428049        0.001563
       713         -0.92428060        0.001447
       714         -0.92428064        0.001447
       715         -0.92428071        0.001447
       716         -0.92428076        0.001447
       717         -0.92428080        0.001447
       718         -0.92428089        0.001447
       719         -0.92428110        0.001447
       720         -0.92428125        0.001447
       721         -0.92428132        0.001447
       722         -0.92428135        0.001447
       723         -0.92428143        0.001447
       724         -0.92428151        0.001447
       725         -0.92428166        0.001447
       726         -0.92428174        0.001447
       727         -0.92428182        0.001447
       728         -0.92428195        0.001447
       729         -0.92428196        0.001447
       730         -0.92428209        0.001447
       731         -0.92428209        0.001447
       732         -0.92428227        0.001447
       733         -0.92428230        0.001447
       734         -0.92428232        0.001447
       735         -0.92428235        0.001447
       736         -0.92428244        0.001447
       737         -0.92428255        0.001447
       738         -0.92428257        0.001447
       739         -0.92428275        0.001447
       740         -0.92428278        0.001447
       741         -0.92428278        0.001447
       742         -0.92428280        0.001447
       743         -0.92428285        0.001447
       744         -0.92428291        0.001447
       745         -0.92428296        0.001447
       746         -0.92428302        0.001447
       747         -0.92428319        0.001447
       748         -0.92428320        0.001447
       749         -0.92428320        0.001447
       750         -0.92428321        0.001447
       751         -0.92428328        0.001447
       752         -0.92428341        0.001447
       753         -0.92428350        0.001447
       754         -0.92428354        0.001447
       755         -0.92428362        0.001447
       756         -0.92428368        0.001447
       757         -0.92428378        0.001447
       758         -0.92428382        0.001447
       759         -0.92428393        0.001447
       760         -0.92428399        0.001447
       761         -0.92428413        0.001447
       762         -0.92428420        0.001447
       763         -0.92428420        0.001447
       764         -0.92428432        0.001447
       765         -0.92428453        0.001447
       766         -0.92428456        0.001447
       767         -0.92428457        0.001447
       768         -0.92428457        0.001447
       769         -0.92428467        0.001447
       770         -0.92428468        0.001447
       771         -0.92428472        0.001447
       772         -0.92428480        0.001447
       773         -0.92428483        0.001447
       774         -0.92428484        0.001447
       775         -0.92428490        0.001447
       776         -0.92428497        0.001447
       777         -0.92428505        0.001447
       778         -0.92428515        0.001447
       779         -0.92428515        0.001447
       780         -0.92428539        0.001447
       781         -0.92428539        0.001447
       782         -0.92428551        0.001447
       783         -0.92428553        0.001447
       784         -0.92428555        0.001447
       785         -0.92428557        0.001447
       786         -0.92428561        0.001447
       787         -0.92428571        0.001447
       788         -0.92428572        0.001447
       789         -0.92428575        0.001447
       790         -0.92428577        0.001447
       791         -0.92428584        0.001447
       792         -0.92428593        0.001447
       793         -0.92428596        0.001447
       794         -0.92428602        0.001447
       795         -0.92428602        0.001447
       796         -0.92428610        0.001447
       797         -0.92428619        0.001447
       798         -0.92428622        0.001447
       799         -0.92428623        0.001447
       800         -0.92428630        0.001447
       801         -0.92428643        0.001447
       802         -0.92428652        0.001447
       803         -0.92428661        0.001447
       804         -0.92428664        0.001447
       805         -0.92428667        0.001339
       806         -0.92428669        0.001339
       807         -0.92428677        0.001339
       808         -0.92428678        0.001339
       809         -0.92428689        0.001339
       810         -0.92428692        0.001339
       811         -0.92428702        0.001339
       812         -0.92428710        0.001339
       813         -0.92428715        0.001339
       814         -0.92428718        0.001339
       815         -0.92428719        0.001339
       816         -0.92428721        0.001339
       817         -0.92428722        0.001339
       818         -0.92428728        0.001339
       819         -0.92428733        0.001339
       820         -0.92428740        0.001339
       821         -0.92428750        0.001339
       822         -0.92428774        0.001339
       823         -0.92428782        0.001339
       824         -0.92428786        0.001339
       825         -0.92428789        0.001339
       826         -0.92428790        0.001240
       827         -0.92428795        0.001240
       828         -0.92428816        0.001240
       829         -0.92428823        0.001240
       830         -0.92428824        0.001240
       831         -0.92428840        0.001240
       832         -0.92428843        0.001240
       833         -0.92428843        0.001240
       834         -0.92428850        0.001240
       835         -0.92428859        0.001240
       836         -0.92428870        0.001240
       837         -0.92428873        0.001240
       838         -0.92428885        0.001240
       839         -0.92428887        0.001240
       840         -0.92428889        0.001240
       841         -0.92428895        0.001240
       842         -0.92428904        0.001240
       843         -0.92428905        0.001240
       844         -0.92428908        0.001240
       845         -0.92428913        0.001240
       846         -0.92428913        0.001240
       847         -0.92428923        0.001240
       848         -0.92428929        0.001240
       849         -0.92428930        0.001240
       850         -0.92428932        0.001240
       851         -0.92428940        0.001240
       852         -0.92428944        0.001240
       853         -0.92428962        0.001240
       854         -0.92428971        0.001240
       855         -0.92428974        0.001240
       856         -0.92428978        0.001240
       857         -0.92428985        0.001240
       858         -0.92428994        0.001240
       859         -0.92429003        0.001240
       860         -0.92429013        0.001240
       861         -0.92429015        0.001240
       862         -0.92429022        0.001240
       863         -0.92429023        0.001240
       864         -0.92429031        0.001240
       865         -0.92429033        0.001240
       866         -0.92429042        0.001240
       867         -0.92429045        0.001240
       868         -0.92429062        0.001240
       869         -0.92429063        0.001240
       870         -0.92429065        0.001240
       871         -0.92429068        0.001240
       872         -0.92429071        0.001240
       873         -0.92429072        0.001240
       874         -0.92429073        0.001240
       875         -0.92429079        0.001240
       876         -0.92429085        0.001240
       877         -0.92429091        0.001240
       878         -0.92429096        0.001240
       879         -0.92429103        0.001240
       880         -0.92429116        0.001240
       881         -0.92429123        0.001240
       882         -0.92429126        0.001240
       883         -0.92429130        0.001240
       884         -0.92429147        0.001240
       885         -0.92429151        0.001240
       886         -0.92429153        0.001240
       887         -0.92429156        0.001240
       888         -0.92429169        0.001240
       889         -0.92429178        0.001240
       890         -0.92429181        0.001240
       891         -0.92429187        0.001240
       892         -0.92429189        0.001240
       893         -0.92429192        0.001240
       894         -0.92429199        0.001240
       895         -0.92429199        0.001240
       896         -0.92429204        0.001240
       897         -0.92429207        0.001240
       898         -0.92429212        0.001240
       899         -0.92429217        0.001240
       900         -0.92429239        0.001240
       901         -0.92429244        0.001240
       902         -0.92429247        0.001240
       903         -0.92429248        0.001240
       904         -0.92429249        0.001240
       905         -0.92429251        0.001240
       906         -0.92429267        0.001240
       907         -0.92429274        0.001240
       908         -0.92429278        0.001240
       909         -0.92429287        0.001240
       910         -0.92429290        0.001240
       911         -0.92429296        0.001240
       912         -0.92429300        0.001240
       913         -0.92429300        0.001240
       914         -0.92429308        0.001240
       915         -0.92429315        0.001240
       916         -0.92429320        0.001240
       917         -0.92429328        0.001240
       918         -0.92429331        0.001240
       919         -0.92429331        0.001240
       920         -0.92429337        0.001148
       921         -0.92429342        0.001148
       922         -0.92429346        0.001148
       923         -0.92429358        0.001148
       924         -0.92429370        0.001148
       925         -0.92429383        0.001148
       926         -0.92429386        0.001148
       927         -0.92429391        0.001148
       928         -0.92429394        0.001148
       929         -0.92429405        0.001148
       930         -0.92429406        0.001148
       931         -0.92429412        0.001148
       932         -0.92429425        0.001148
       933         -0.92429428        0.001148
       934         -0.92429430        0.001148
       935         -0.92429441        0.001148
       936         -0.92429444        0.001148
       937         -0.92429445        0.001148
       938         -0.92429455        0.001148
       939         -0.92429466        0.001148
       940         -0.92429481        0.001148
       941         -0.92429482        0.001148
       942         -0.92429484        0.001148
       943         -0.92429490        0.001148
       944         -0.92429495        0.001148
       945         -0.92429498        0.001148
       946         -0.92429501        0.001148
       947         -0.92429502        0.001148
       948         -0.92429513        0.001148
       949         -0.92429519        0.001148
       950         -0.92429519        0.001148
       951         -0.92429526        0.001148
       952         -0.92429528        0.001148
       953         -0.92429533        0.001148
       954         -0.92429534        0.001148
       955         -0.92429536        0.001148
       956         -0.92429547        0.001148
       957         -0.92429552        0.001148
       958         -0.92429554        0.001148
       959         -0.92429558        0.001148
       960         -0.92429565        0.001148
       961         -0.92429568        0.001148
       962         -0.92429568        0.001148
       963         -0.92429571        0.001148
       964         -0.92429573        0.001148
       965         -0.92429576        0.001148
       966         -0.92429581        0.001148
       967         -0.92429587        0.001148
       968         -0.92429587        0.001148
       969         -0.92429601        0.001148
       970         -0.92429608        0.001148
       971         -0.92429609        0.001148
       972         -0.92429613        0.001148
       973         -0.92429614        0.001148
       974         -0.92429626        0.001148
       975         -0.92429633        0.001148
       976         -0.92429640        0.001148
       977         -0.92429643        0.001148
       978         -0.92429643        0.001148
       979         -0.92429654        0.001148
       980         -0.92429656        0.001148
       981         -0.92429669        0.001148
       982         -0.92429678        0.001148
       983         -0.92429680        0.001148
       984         -0.92429682        0.001148
       985         -0.92429684        0.001148
       986         -0.92429698        0.001148
       987         -0.92429699        0.001148
       988         -0.92429699        0.001148
       989         -0.92429702        0.001148
       990         -0.92429713        0.001148
       991         -0.92429718        0.001148
       992         -0.92429721        0.001148
       993         -0.92429725        0.001148
       994         -0.92429725        0.001148
       995         -0.92429732        0.001148
       996         -0.92429734        0.001148
       997         -0.92429736        0.001148
       998         -0.92429737        0.001148
       999         -0.92429746        0.001148
      1000         -0.92429751        0.001148
      1001         -0.92429752        0.001148
      1002         -0.92429752        0.001148
      1003         -0.92429756        0.001148
      1004         -0.92429759        0.001148
      1005         -0.92429766        0.001148
      1006         -0.92429780        0.001148
      1007         -0.92429786        0.001148
      1008         -0.92429787        0.001148
      1009         -0.92429813        0.001148
      1010         -0.92429820        0.001148
      1011         -0.92429823        0.001148
      1012         -0.92429829        0.001148
      1013         -0.92429835        0.001148
      1014         -0.92429844        0.001148
      1015         -0.92429848        0.001148
      1016         -0.92429850        0.001148
      1017         -0.92429854        0.001148
      1018         -0.92429875        0.001148
      1019         -0.92429889        0.001148
      1020         -0.92429894        0.001148
      1021         -0.92429901        0.001148
      1022         -0.92429902        0.001148
      1023         -0.92429916        0.001148
      1024         -0.92429918        0.001148
      1025         -0.92429920        0.001148
      1026         -0.92429927        0.001148
      1027         -0.92429928        0.001148
      1028         -0.92429935        0.001148
      1029         -0.92429937        0.001148
      1030         -0.92429940        0.001148
      1031         -0.92429945        0.001148
      1032         -0.92429952        0.001148
      1033         -0.92429962        0.001148
      1034         -0.92429966        0.001148
      1035         -0.92429966        0.001063
      1036         -0.92429968        0.001063
      1037         -0.92429976        0.001063
      1038         -0.92429979        0.001063
      1039         -0.92429983        0.001063
      1040         -0.92429993        0.001063
      1041         -0.92429998        0.001063
      1042         -0.92429999        0.001063
      1043         -0.92430000        0.001063
      1044         -0.92430006        0.001063
      1045         -0.92430015        0.001063
      1046         -0.92430016        0.001063
      1047         -0.92430033        0.001063
      1048         -0.92430042        0.001063
      1049         -0.92430052        0.001063
      1050         -0.92430054        0.001063
      1051         -0.92430059        0.001063
      1052         -0.92430064        0.001063
      1053         -0.92430066        0.001063
      1054         -0.92430069        0.001063
      1055         -0.92430070        0.001063
      1056         -0.92430071        0.001063
      1057         -0.92430075        0.001063
      1058         -0.92430078        0.001063
      1059         -0.92430079        0.001063
      1060         -0.92430082        0.001063
      1061         -0.92430086        0.001063
      1062         -0.92430091        0.001063
      1063         -0.92430093        0.001063
      1064         -0.92430099        0.001063
      1065         -0.92430100        0.001063
      1066         -0.92430107        0.001063
      1067         -0.92430112        0.001063
      1068         -0.92430120        0.001063
      1069         -0.92430127        0.001063
      1070         -0.92430134        0.001063
      1071         -0.92430139        0.001063
      1072         -0.92430144        0.001063
      1073         -0.92430145        0.001063
      1074         -0.92430148        0.001063
      1075         -0.92430148        0.001063
      1076         -0.92430158        0.001063
      1077         -0.92430168        0.001063
      1078         -0.92430173        0.001063
      1079         -0.92430176        0.001063
      1080         -0.92430180        0.001063
      1081         -0.92430184        0.001063
      1082         -0.92430186        0.001063
      1083         -0.92430186        0.001063
      1084         -0.92430188        0.001063
      1085         -0.92430189        0.001063
      1086         -0.92430190        0.001063
      1087         -0.92430197        0.001063
      1088         -0.92430205        0.001063
      1089         -0.92430206        0.001063
      1090         -0.92430208        0.001063
      1091         -0.92430209        0.001063
      1092         -0.92430212        0.001063
      1093         -0.92430223        0.001063
      1094         -0.92430224        0.001063
      1095         -0.92430232        0.001063
      1096         -0.92430233        0.001063
      1097         -0.92430234        0.001063
      1098         -0.92430241        0.001063
      1099         -0.92430245        0.001063
      1100         -0.92430245        0.001063
      1101         -0.92430247        0.001063
      1102         -0.92430252        0.001063
      1103         -0.92430254        0.001063
      1104         -0.92430259        0.001063
      1105         -0.92430264        0.001063
      1106         -0.92430268        0.001063
      1107         -0.92430273        0.001063
      1108         -0.92430275        0.001063
      1109         -0.92430280        0.001063
      1110         -0.92430281        0.001063
      1111         -0.92430281        0.001063
      1112         -0.92430282        0.001063
      1113         -0.92430288        0.001063
      1114         -0.92430293        0.001063
      1115         -0.92430301        0.001063
      1116         -0.92430305        0.001063
      1117         -0.92430313        0.001063
      1118         -0.92430321        0.000984
      1119         -0.92430331        0.000984
      1120         -0.92430335        0.000984
      1121         -0.92430340        0.000984
      1122         -0.92430345        0.000984
      1123         -0.92430349        0.000984
      1124         -0.92430350        0.000984
      1125         -0.92430351        0.000984
      1126         -0.92430353        0.000984
      1127         -0.92430361        0.000984
      1128         -0.92430364        0.000984
      1129         -0.92430366        0.000984
      1130         -0.92430367        0.000984
      1131         -0.92430371        0.000984
      1132         -0.92430377        0.000984
      1133         -0.92430381        0.000984
      1134         -0.92430382        0.000984
      1135         -0.92430382        0.000984
      1136         -0.92430384        0.000984
      1137         -0.92430387        0.000984
      1138         -0.92430396        0.000984
      1139         -0.92430401        0.000984
      1140         -0.92430403        0.000984
      1141         -0.92430410        0.000984
      1142         -0.92430420        0.000984
      1143         -0.92430423        0.000984
      1144         -0.92430423        0.000984
      1145         -0.92430427        0.000984
      1146         -0.92430427        0.000984
      1147         -0.92430438        0.000984
      1148         -0.92430438        0.000984
      1149         -0.92430442        0.000984
      1150         -0.92430444        0.000984
      1151         -0.92430445        0.000984
      1152         -0.92430446        0.000984
      1153         -0.92430447        0.000984
      1154         -0.92430457        0.000984
      1155         -0.92430457        0.000984
      1156         -0.92430460        0.000984
      1157         -0.92430461        0.000984
      1158         -0.92430465        0.000984
      1159         -0.92430466        0.000984
      1160         -0.92430466        0.000984
      1161         -0.92430472        0.000984
      1162         -0.92430472        0.000984
      1163         -0.92430477        0.000984
      1164         -0.92430485        0.000984
      1165         -0.92430494        0.000984
      1166         -0.92430502        0.000984
      1167         -0.92430505        0.000984
      1168         -0.92430506        0.000984
      1169         -0.92430507        0.000984
      1170         -0.92430507        0.000984
      1171         -0.92430517        0.000984
      1172         -0.92430525        0.000984
      1173         -0.92430528        0.000984
      1174         -0.92430535        0.000984
      1175         -0.92430537        0.000984
      1176         -0.92430538        0.000984
      1177         -0.92430554        0.000984
      1178         -0.92430554        0.000984
      1179         -0.92430559        0.000984
      1180         -0.92430559        0.000984
      1181         -0.92430563        0.000984
      1182         -0.92430574        0.000984
      1183         -0.92430577        0.000984
      1184         -0.92430586        0.000984
      1185         -0.92430594        0.000984
      1186         -0.92430598        0.000984
      1187         -0.92430598        0.000984
      1188         -0.92430600        0.000984
      1189         -0.92430603        0.000984
      1190         -0.92430609        0.000984
      1191         -0.92430609        0.000984
      1192         -0.92430614        0.000984
      1193         -0.92430616        0.000984
      1194         -0.92430622        0.000984
      1195         -0.92430629        0.000984
      1196         -0.92430637        0.000984
      1197         -0.92430639        0.000984
      1198         -0.92430641        0.000984
      1199         -0.92430643        0.000984
      1200         -0.92430644        0.000984
      1201         -0.92430646        0.000984
      1202         -0.92430648        0.000984
      1203         -0.92430648        0.000984
      1204         -0.92430650        0.000984
      1205         -0.92430650        0.000984
      1206         -0.92430655        0.000984
      1207         -0.92430660        0.000984
      1208         -0.92430663        0.000984
      1209         -0.92430669        0.000984
      1210         -0.92430674        0.000984
      1211         -0.92430681        0.000984
      1212         -0.92430687        0.000984
      1213         -0.92430699        0.000984
      1214         -0.92430706        0.000984
      1215         -0.92430707        0.000984
      1216         -0.92430717        0.000984
      1217         -0.92430718        0.000984
      1218         -0.92430724        0.000984
      1219         -0.92430728        0.000984
      1220         -0.92430730        0.000984
      1221         -0.92430731        0.000984
      1222         -0.92430732        0.000984
      1223         -0.92430733        0.000984
      1224         -0.92430742        0.000984
      1225         -0.92430743        0.000984
      1226         -0.92430745        0.000984
      1227         -0.92430746        0.000984
      1228         -0.92430746        0.000984
      1229         -0.92430746        0.000984
      1230         -0.92430752        0.000984
      1231         -0.92430756        0.000984
      1232         -0.92430761        0.000984
      1233         -0.92430762        0.000984
      1234         -0.92430768        0.000984
      1235         -0.92430771        0.000984
      1236         -0.92430776        0.000984
      1237         -0.92430781        0.000984
      1238         -0.92430782        0.000984
      1239         -0.92430785        0.000984
      1240         -0.92430788        0.000984
      1241         -0.92430792        0.000984
      1242         -0.92430795        0.000984
      1243         -0.92430796        0.000984
      1244         -0.92430798        0.000984
      1245         -0.92430809        0.000984
      1246         -0.92430817        0.000984
      1247         -0.92430818        0.000984
      1248         -0.92430819        0.000984
      1249         -0.92430820        0.000984
      1250         -0.92430823        0.000984
      1251         -0.92430824        0.000984
      1252         -0.92430825        0.000984
      1253         -0.92430827        0.000984
      1254         -0.92430829        0.000984
      1255         -0.92430831        0.000984
      1256         -0.92430831        0.000984
      1257         -0.92430839        0.000984
      1258         -0.92430841        0.000984
      1259         -0.92430843        0.000984
      1260         -0.92430852        0.000984
      1261         -0.92430855        0.000984
      1262         -0.92430861        0.000984
      1263         -0.92430865        0.000984
      1264         -0.92430869        0.000984
      1265         -0.92430882        0.000984
      1266         -0.92430886        0.000984
      1267         -0.92430887        0.000984
      1268         -0.92430888        0.000984
      1269         -0.92430890        0.000984
      1270         -0.92430893        0.000984
      1271         -0.92430894        0.000984
      1272         -0.92430894        0.000984
      1273         -0.92430904        0.000984
      1274         -0.92430905        0.000984
      1275         -0.92430905        0.000984
      1276         -0.92430908        0.000984
      1277         -0.92430908        0.000984
      1278         -0.92430916        0.000984
      1279         -0.92430920        0.000984
      1280         -0.92430921        0.000984
      1281         -0.92430927        0.000984
      1282         -0.92430929        0.000984
      1283         -0.92430934        0.000984
      1284         -0.92430935        0.000984
      1285         -0.92430936        0.000984
      1286         -0.92430943        0.000984
      1287         -0.92430946        0.000984
      1288         -0.92430947        0.000984
      1289         -0.92430948        0.000984
      1290         -0.92430954        0.000984
      1291         -0.92430957        0.000984
      1292         -0.92430958        0.000984
      1293         -0.92430959        0.000984
      1294         -0.92430960        0.000984
      1295         -0.92430960        0.000984
      1296         -0.92430965        0.000984
      1297         -0.92430965        0.000984
      1298         -0.92430969        0.000984
      1299         -0.92430974        0.000984
      1300         -0.92430982        0.000984
      1301         -0.92430987        0.000984
      1302         -0.92430990        0.000984
      1303         -0.92430995        0.000984
      1304         -0.92430998        0.000984
      1305         -0.92431000        0.000984
      1306         -0.92431001        0.000984
      1307         -0.92431001        0.000984
      1308         -0.92431005        0.000984
      1309         -0.92431012        0.000984
      1310         -0.92431012        0.000984
      1311         -0.92431013        0.000984
      1312         -0.92431013        0.000984
      1313         -0.92431018        0.000984
      1314         -0.92431021        0.000984
      1315         -0.92431023        0.000984
      1316         -0.92431026        0.000984
      1317         -0.92431026        0.000984
      1318         -0.92431027        0.000984
      1319         -0.92431031        0.000984
      1320         -0.92431033        0.000984
      1321         -0.92431033        0.000984
      1322         -0.92431036        0.000984
      1323         -0.92431040        0.000984
      1324         -0.92431042        0.000984
      1325         -0.92431042        0.000984
      1326         -0.92431042        0.000984
      1327         -0.92431046        0.000984
      1328         -0.92431049        0.000984
      1329         -0.92431051        0.000984
      1330         -0.92431053        0.000984
      1331         -0.92431061        0.000984
      1332         -0.92431067        0.000984
      1333         -0.92431068        0.000984
      1334         -0.92431074        0.000984
      1335         -0.92431082        0.000984
      1336         -0.92431083        0.000984
      1337         -0.92431092        0.000984
      1338         -0.92431093        0.000911
      1339         -0.92431096        0.000911
      1340         -0.92431098        0.000911
      1341         -0.92431099        0.000911
      1342         -0.92431102        0.000911
      1343         -0.92431102        0.000911
      1344         -0.92431103        0.000911
      1345         -0.92431108        0.000911
      1346         -0.92431109        0.000911
      1347         -0.92431111        0.000911
      1348         -0.92431112        0.000911
      1349         -0.92431113        0.000911
      1350         -0.92431119        0.000911
      1351         -0.92431121        0.000911
      1352         -0.92431124        0.000911
      1353         -0.92431126        0.000911
      1354         -0.92431131        0.000911
      1355         -0.92431131        0.000911
      1356         -0.92431135        0.000911
      1357         -0.92431139        0.000911
      1358         -0.92431140        0.000911
      1359         -0.92431148        0.000911
      1360         -0.92431152        0.000911
      1361         -0.92431153        0.000911
      1362         -0.92431156        0.000911
      1363         -0.92431163        0.000911
      1364         -0.92431166        0.000911
      1365         -0.92431171        0.000911
      1366         -0.92431172        0.000911
      1367         -0.92431173        0.000911
      1368         -0.92431175        0.000911
      1369         -0.92431177        0.000911
      1370         -0.92431181        0.000911
      1371         -0.92431183        0.000911
      1372         -0.92431185        0.000911
      1373         -0.92431185        0.000911
      1374         -0.92431188        0.000911
      1375         -0.92431192        0.000911
      1376         -0.92431199        0.000911
      1377         -0.92431200        0.000911
      1378         -0.92431202        0.000911
      1379         -0.92431204        0.000911
      1380         -0.92431208        0.000911
      1381         -0.92431209        0.000911
      1382         -0.92431210        0.000911
      1383         -0.92431217        0.000911
      1384         -0.92431218        0.000911
      1385         -0.92431224        0.000911
      1386         -0.92431231        0.000911
      1387         -0.92431236        0.000911
      1388         -0.92431237        0.000911
      1389         -0.92431239        0.000911
      1390         -0.92431242        0.000911
      1391         -0.92431243        0.000911
      1392         -0.92431245        0.000911
      1393         -0.92431245        0.000911
      1394         -0.92431248        0.000911
      1395         -0.92431251        0.000911
      1396         -0.92431256        0.000911
      1397         -0.92431257        0.000911
      1398         -0.92431260        0.000911
      1399         -0.92431263        0.000911
      1400         -0.92431267        0.000911
      1401         -0.92431272        0.000911
      1402         -0.92431272        0.000911
      1403         -0.92431272        0.000911
      1404         -0.92431274        0.000911
      1405         -0.92431279        0.000911
      1406         -0.92431280        0.000911
      1407         -0.92431287        0.000911
      1408         -0.92431290        0.000911
      1409         -0.92431290        0.000911
      1410         -0.92431291        0.000911
      1411         -0.92431293        0.000911
      1412         -0.92431300        0.000911
      1413         -0.92431300        0.000911
      1414         -0.92431304        0.000911
      1415         -0.92431304        0.000911
      1416         -0.92431309        0.000911
      1417         -0.92431317        0.000911
      1418         -0.92431321        0.000911
      1419         -0.92431323        0.000911
      1420         -0.92431323        0.000911
      1421         -0.92431323        0.000911
      1422         -0.92431326        0.000911
      1423         -0.92431329        0.000911
      1424         -0.92431330        0.000911
      1425         -0.92431333        0.000911
      1426         -0.92431337        0.000911
      1427         -0.92431338        0.000911
      1428         -0.92431339        0.000911
      1429         -0.92431344        0.000911
      1430         -0.92431349        0.000911
      1431         -0.92431349        0.000911
      1432         -0.92431349        0.000911
      1433         -0.92431353        0.000911
      1434         -0.92431355        0.000911
      1435         -0.92431357        0.000911
      1436         -0.92431359        0.000911
      1437         -0.92431359        0.000911
      1438         -0.92431360        0.000911
      1439         -0.92431362        0.000911
      1440         -0.92431365        0.000911
      1441         -0.92431366        0.000911
      1442         -0.92431366        0.000911
      1443         -0.92431369        0.000911
      1444         -0.92431371        0.000911
      1445         -0.92431372        0.000911
      1446         -0.92431374        0.000911
      1447         -0.92431375        0.000911
      1448         -0.92431376        0.000911
      1449         -0.92431376        0.000911
      1450         -0.92431377        0.000911
      1451         -0.92431381        0.000911
      1452         -0.92431382        0.000911
      1453         -0.92431388        0.000911
      1454         -0.92431392        0.000911
      1455         -0.92431397        0.000911
      1456         -0.92431398        0.000911
      1457         -0.92431398        0.000911
      1458         -0.92431399        0.000911
      1459         -0.92431399        0.000911
      1460         -0.92431399        0.000911
      1461         -0.92431400        0.000911
      1462         -0.92431406        0.000911
      1463         -0.92431406        0.000911
      1464         -0.92431412        0.000911
      1465         -0.92431421        0.000911
      1466         -0.92431423        0.000911
      1467         -0.92431426        0.000911
      1468         -0.92431428        0.000911
      1469         -0.92431430        0.000911
      1470         -0.92431432        0.000911
      1471         -0.92431437        0.000911
      1472         -0.92431442        0.000911
      1473         -0.92431448        0.000911
      1474         -0.92431449        0.000911
      1475         -0.92431451        0.000911
      1476         -0.92431456        0.000911
      1477         -0.92431458        0.000911
      1478         -0.92431459        0.000911
      1479         -0.92431464        0.000911
      1480         -0.92431467        0.000911
      1481         -0.92431474        0.000911
      1482         -0.92431476        0.000911
      1483         -0.92431478        0.000911
      1484         -0.92431483        0.000911
      1485         -0.92431483        0.000911
      1486         -0.92431487        0.000911
      1487         -0.92431490        0.000911
      1488         -0.92431491        0.000911
      1489         -0.92431492        0.000911
      1490         -0.92431500        0.000911
      1491         -0.92431502        0.000911
      1492         -0.92431503        0.000911
      1493         -0.92431508        0.000911
      1494         -0.92431510        0.000911
      1495         -0.92431513        0.000911
      1496         -0.92431518        0.000911
      1497         -0.92431525        0.000911
      1498         -0.92431525        0.000911
      1499         -0.92431527        0.000911
      1500         -0.92431530        0.000911
      1501         -0.92431534        0.000911
      1502         -0.92431537        0.000911
      1503         -0.92431540        0.000911
      1504         -0.92431542        0.000911
      1505         -0.92431543        0.000911
      1506         -0.92431544        0.000911
      1507         -0.92431544        0.000911
      1508         -0.92431546        0.000911
      1509         -0.92431547        0.000911
      1510         -0.92431549        0.000911
      1511         -0.92431550        0.000911
      1512         -0.92431550        0.000911
      1513         -0.92431552        0.000911
      1514         -0.92431559        0.000911
      1515         -0.92431568        0.000911
      1516         -0.92431568        0.000911
      1517         -0.92431571        0.000911
      1518         -0.92431574        0.000911
      1519         -0.92431574        0.000844
      1520         -0.92431578        0.000844
      1521         -0.92431578        0.000844
      1522         -0.92431583        0.000844
      1523         -0.92431585        0.000844
      1524         -0.92431586        0.000844
      1525         -0.92431589        0.000844
      1526         -0.92431591        0.000844
      1527         -0.92431591        0.000844
      1528         -0.92431593        0.000844
      1529         -0.92431593        0.000844
      1530         -0.92431595        0.000844
      1531         -0.92431599        0.000844
      1532         -0.92431600        0.000844
      1533         -0.92431604        0.000844
      1534         -0.92431605        0.000844
      1535         -0.92431606        0.000844
      1536         -0.92431607        0.000844
      1537         -0.92431608        0.000844
      1538         -0.92431610        0.000844
      1539         -0.92431612        0.000844
      1540         -0.92431614        0.000844
      1541         -0.92431618        0.000844
      1542         -0.92431622        0.000844
      1543         -0.92431626        0.000844
      1544         -0.92431631        0.000844
      1545         -0.92431634        0.000844
      1546         -0.92431635        0.000844
      1547         -0.92431635        0.000844
      1548         -0.92431636        0.000844
      1549         -0.92431637        0.000844
      1550         -0.92431639        0.000844
      1551         -0.92431641        0.000844
[...]
   2      -0.26854,    0.19637    -0.76588,    0.53457     0.02941,   -0.05583     0.03598,    0.03975     0.03659,    0.01301     0.03169,   -0.02886
   3      -0.04678,   -0.02153    -0.01803,    0.04366    -0.61362,    0.47867    -0.47963,    0.38621     0.00687,   -0.02730     0.02528,    0.00281
   4       0.00230,   -0.04199     0.07146,    0.01322     0.15832,   -0.58625    -0.19833,    0.74523    -0.08601,    0.10056     0.01451,    0.02585
   5       0.00794,    0.02523     0.07626,   -0.00367     0.02780,    0.01417    -0.06377,    0.00570     0.36541,    0.01913     0.41479,    0.04711
   6       0.02486,    0.01054     0.00485,   -0.01823     0.01089,    0.05707    -0.01668,   -0.01863    -0.25441,    0.33831    -0.22502,    0.27632
   7      -0.01806,    0.02009    -0.02381,   -0.03159    -0.02106,   -0.07245     0.00644,    0.03945    -0.16240,   -0.40140    -0.18496,   -0.38965
   8      -0.01980,    0.01730    -0.00645,   -0.00405    -0.04620,    0.01088    -0.04291,   -0.08860    -0.18377,    0.40722     0.18228,   -0.41208
   9       0.01533,   -0.02303     0.04321,    0.00682     0.05399,    0.03319    -0.03428,   -0.02199    -0.25860,    0.34110     0.26905,   -0.32111
  10       0.01427,    0.02124     0.01766,   -0.01934     0.06003,    0.02260    -0.02939,   -0.03509     0.29715,    0.09075    -0.35074,   -0.07972

                     7                       8                       9                      10  
       ----------------------- ----------------------- ----------------------- -----------------------
   1      -0.01223,   -0.03374    -0.01211,   -0.02018     0.00639,   -0.02234    -0.03007,    0.00087
   2       0.02960,   -0.00634     0.01352,   -0.02276     0.05254,   -0.03810     0.02191,    0.02174
   3       0.01858,    0.02789    -0.06360,   -0.00255    -0.02909,   -0.03445     0.03313,    0.02273
   4       0.00437,    0.00876    -0.02017,   -0.02230     0.03648,    0.09186     0.01415,   -0.01196
   5       0.55926,    0.05449     0.53759,    0.03061     0.26275,    0.05321    -0.04410,    0.02725
   6       0.03345,    0.04897     0.21250,   -0.27579     0.32483,   -0.44406     0.32316,   -0.39608
   7       0.25179,    0.44137     0.06879,    0.19497    -0.10526,   -0.24505    -0.22846,   -0.43888
   8       0.18313,   -0.38423    -0.10603,    0.27705    -0.09557,    0.28133     0.19814,   -0.43354
   9      -0.04688,    0.09836    -0.17256,    0.16997     0.34647,   -0.43062    -0.32617,    0.38797
  10       0.45537,    0.13678    -0.59618,   -0.19440     0.34049,    0.16750     0.04272,    0.03783

                   WFN1 Final beta Correlation Function Analysis
                   ---------------------------------------------


 global array: Cb[1:10,1:10],  handle: -980 

                     1                       2                       3                       4                       5                       6  
       ----------------------- ----------------------- ----------------------- ----------------------- ----------------------- -----------------------
   1      -0.90997,    0.22934     0.32289,   -0.07405     0.02382,   -0.02496    -0.03558,   -0.04678    -0.01405,   -0.00824    -0.01938,    0.03247
   2      -0.26854,    0.19637    -0.76588,    0.53457     0.02941,   -0.05583     0.03598,    0.03975     0.03659,    0.01301     0.03169,   -0.02886
   3      -0.04678,   -0.02153    -0.01803,    0.04366    -0.61362,    0.47867    -0.47963,    0.38621     0.00687,   -0.02730     0.02528,    0.00281
   4       0.00230,   -0.04199     0.07146,    0.01322     0.15832,   -0.58625    -0.19833,    0.74523    -0.08601,    0.10056     0.01451,    0.02585
   5       0.00794,    0.02523     0.07626,   -0.00367     0.02780,    0.01417    -0.06377,    0.00570     0.36541,    0.01913     0.41479,    0.04711
   6       0.02486,    0.01054     0.00485,   -0.01823     0.01089,    0.05707    -0.01668,   -0.01863    -0.25441,    0.33831    -0.22502,    0.27632
   7      -0.01806,    0.02009    -0.02381,   -0.03159    -0.02106,   -0.07245     0.00644,    0.03945    -0.16240,   -0.40140    -0.18496,   -0.38965
   8      -0.01980,    0.01730    -0.00645,   -0.00405    -0.04620,    0.01088    -0.04291,   -0.08860    -0.18377,    0.40722     0.18228,   -0.41208
   9       0.01533,   -0.02303     0.04321,    0.00682     0.05399,    0.03319    -0.03428,   -0.02199    -0.25860,    0.34110     0.26905,   -0.32111
  10       0.01427,    0.02124     0.01766,   -0.01934     0.06003,    0.02260    -0.02939,   -0.03509     0.29715,    0.09075    -0.35074,   -0.07972

                     7                       8                       9                      10  
       ----------------------- ----------------------- ----------------------- -----------------------
   1      -0.01223,   -0.03374    -0.01211,   -0.02018     0.00639,   -0.02234    -0.03007,    0.00087
   2       0.02960,   -0.00634     0.01352,   -0.02276     0.05254,   -0.03810     0.02191,    0.02174
   3       0.01858,    0.02789    -0.06360,   -0.00255    -0.02909,   -0.03445     0.03313,    0.02273
   4       0.00437,    0.00876    -0.02017,   -0.02230     0.03648,    0.09186     0.01415,   -0.01196
   5       0.55926,    0.05449     0.53759,    0.03061     0.26275,    0.05321    -0.04410,    0.02725
   6       0.03345,    0.04897     0.21250,   -0.27579     0.32483,   -0.44406     0.32316,   -0.39608
   7       0.25179,    0.44137     0.06879,    0.19497    -0.10526,   -0.24505    -0.22846,   -0.43888
   8       0.18313,   -0.38423    -0.10603,    0.27705    -0.09557,    0.28133     0.19814,   -0.43354
   9      -0.04688,    0.09836    -0.17256,    0.16997     0.34647,   -0.43062    -0.32617,    0.38797
  10       0.45537,    0.13678    -0.59618,   -0.19440     0.34049,    0.16750     0.04272,    0.03783

                     WFN1 Final Alpha Natural Orbital Analysis
                     -----------------------------------------

 Vector    1  Occ=8.806342D-01  E= 0.000000D+00
              MO Center=  5.0D-06, -3.3D-06, -2.0D-05, r^2= 1.9D+00
   Bfn.  Coefficient  Atom+Function         Bfn.  Coefficient  Atom+Function  
  ----- ------------  ---------------      ----- ------------  ---------------
     2      0.477992  1 H  s                  7      0.477975  2 H  s          
     1      0.223033  1 H  s                  6      0.223036  2 H  s          

 Vector    2  Occ=1.106758D-01  E= 0.000000D+00
              MO Center= -3.6D-05,  1.8D-06,  3.1D-06, r^2= 2.1D+00
   Bfn.  Coefficient  Atom+Function         Bfn.  Coefficient  Atom+Function  
  ----- ------------  ---------------      ----- ------------  ---------------
     2     -0.547174  1 H  s                  7      0.547178  2 H  s          
     1     -0.303572  1 H  s                  6      0.303579  2 H  s          

 Vector    3  Occ=2.651603D-03  E= 0.000000D+00
              MO Center= -5.8D-04,  2.7D-03,  3.3D-05, r^2= 2.0D+00
   Bfn.  Coefficient  Atom+Function         Bfn.  Coefficient  Atom+Function  
  ----- ------------  ---------------      ----- ------------  ---------------
     1     -0.899822  1 H  s                  6     -0.899857  2 H  s          
     2      0.667387  1 H  s                  7      0.667460  2 H  s          
    10     -0.052561  2 H  pz                 5      0.052049  1 H  pz         

 Vector    4  Occ=1.768622D-03  E= 0.000000D+00
              MO Center=  2.0D-03,  4.1D-03,  4.3D-05, r^2= 2.8D+00
   Bfn.  Coefficient  Atom+Function         Bfn.  Coefficient  Atom+Function  
  ----- ------------  ---------------      ----- ------------  ---------------
     2     -0.981933  1 H  s                  7      0.982524  2 H  s          
     1      0.909860  1 H  s                  6     -0.910610  2 H  s          
    10      0.044622  2 H  pz                 5      0.044046  1 H  pz         
     3      0.036086  1 H  px                 9     -0.029484  2 H  py         

 Vector    5  Occ=6.994288D-04  E= 0.000000D+00
              MO Center=  1.4D-05, -1.9D-05, -1.6D-04, r^2= 1.5D+00
   Bfn.  Coefficient  Atom+Function         Bfn.  Coefficient  Atom+Function  
  ----- ------------  ---------------      ----- ------------  ---------------
     5     -0.704987  1 H  pz                10      0.704311  2 H  pz         
     2      0.111095  1 H  s                  7      0.111201  2 H  s          
     1     -0.103719  1 H  s                  6     -0.103737  2 H  s          
     8      0.044905  2 H  px                 3     -0.038138  1 H  px         

 Vector    6  Occ=7.289920D-04  E= 0.000000D+00
              MO Center=  1.4D-03, -1.8D-03, -5.0D-04, r^2= 1.4D+00
   Bfn.  Coefficient  Atom+Function         Bfn.  Coefficient  Atom+Function  
  ----- ------------  ---------------      ----- ------------  ---------------
     9     -0.551906  2 H  py                 4     -0.515444  1 H  py         
     3      0.483718  1 H  px                 8      0.440176  2 H  px         
     6      0.031218  2 H  s                  7     -0.028693  2 H  s          
    10     -0.027489  2 H  pz         

 Vector    7  Occ=7.299122D-04  E= 0.000000D+00
              MO Center= -1.1D-03, -7.2D-04,  2.6D-04, r^2= 1.4D+00
   Bfn.  Coefficient  Atom+Function         Bfn.  Coefficient  Atom+Function  
  ----- ------------  ---------------      ----- ------------  ---------------
     3     -0.561366  1 H  px                 8     -0.503737  2 H  px         
     9     -0.495800  2 H  py                 4     -0.428720  1 H  py         

 Vector    8  Occ=6.914970D-04  E= 0.000000D+00
              MO Center= -3.3D-03, -3.0D-03, -6.5D-05, r^2= 1.4D+00
   Bfn.  Coefficient  Atom+Function         Bfn.  Coefficient  Atom+Function  
  ----- ------------  ---------------      ----- ------------  ---------------
     8     -0.553037  2 H  px                 3      0.512753  1 H  px         
     4      0.483395  1 H  py                 9     -0.440442  2 H  py         
     5     -0.047186  1 H  pz                 1     -0.046390  1 H  s          
     2      0.044551  1 H  s          

 Vector    9  Occ=7.651661D-04  E= 0.000000D+00
              MO Center=  1.3D-03, -1.5D-03,  2.3D-04, r^2= 1.4D+00
   Bfn.  Coefficient  Atom+Function         Bfn.  Coefficient  Atom+Function  
  ----- ------------  ---------------      ----- ------------  ---------------
     4      0.561991  1 H  py                 9     -0.504123  2 H  py         
     8      0.494197  2 H  px                 3     -0.428052  1 H  px         
    10     -0.039548  2 H  pz                 5      0.029530  1 H  pz         

 Vector   10  Occ=6.547639D-04  E= 0.000000D+00
              MO Center=  3.1D-04,  3.6D-04,  1.7D-04, r^2= 1.5D+00
   Bfn.  Coefficient  Atom+Function         Bfn.  Coefficient  Atom+Function  
  ----- ------------  ---------------      ----- ------------  ---------------
     5      0.708091  1 H  pz                10      0.709640  2 H  pz         
     2      0.177495  1 H  s                  7     -0.176448  2 H  s          
     1     -0.119270  1 H  s                  6      0.117966  2 H  s          
     3      0.044280  1 H  px         


                     WFN1 Final Beta Natural Orbital Analysis
                     ----------------------------------------

 Vector    1  Occ=8.806342D-01  E= 0.000000D+00
              MO Center=  5.0D-06, -3.3D-06, -2.0D-05, r^2= 1.9D+00
   Bfn.  Coefficient  Atom+Function         Bfn.  Coefficient  Atom+Function  
  ----- ------------  ---------------      ----- ------------  ---------------
     2      0.477992  1 H  s                  7      0.477975  2 H  s          
     1      0.223033  1 H  s                  6      0.223036  2 H  s          

 Vector    2  Occ=1.106758D-01  E= 0.000000D+00
              MO Center= -3.6D-05,  1.8D-06,  3.1D-06, r^2= 2.1D+00
   Bfn.  Coefficient  Atom+Function         Bfn.  Coefficient  Atom+Function  
  ----- ------------  ---------------      ----- ------------  ---------------
     2     -0.547174  1 H  s                  7      0.547178  2 H  s          
     1     -0.303572  1 H  s                  6      0.303579  2 H  s          

 Vector    3  Occ=2.651603D-03  E= 0.000000D+00
              MO Center= -5.8D-04,  2.7D-03,  3.3D-05, r^2= 2.0D+00
   Bfn.  Coefficient  Atom+Function         Bfn.  Coefficient  Atom+Function  
  ----- ------------  ---------------      ----- ------------  ---------------
     1     -0.899822  1 H  s                  6     -0.899857  2 H  s          
     2      0.667387  1 H  s                  7      0.667460  2 H  s          
    10     -0.052561  2 H  pz                 5      0.052049  1 H  pz         

 Vector    4  Occ=1.768622D-03  E= 0.000000D+00
              MO Center=  2.0D-03,  4.1D-03,  4.3D-05, r^2= 2.8D+00
   Bfn.  Coefficient  Atom+Function         Bfn.  Coefficient  Atom+Function  
  ----- ------------  ---------------      ----- ------------  ---------------
     2     -0.981933  1 H  s                  7      0.982524  2 H  s          
     1      0.909860  1 H  s                  6     -0.910610  2 H  s          
    10      0.044622  2 H  pz                 5      0.044046  1 H  pz         
     3      0.036086  1 H  px                 9     -0.029484  2 H  py         

 Vector    5  Occ=6.994288D-04  E= 0.000000D+00
              MO Center=  1.4D-05, -1.9D-05, -1.6D-04, r^2= 1.5D+00
   Bfn.  Coefficient  Atom+Function         Bfn.  Coefficient  Atom+Function  
  ----- ------------  ---------------      ----- ------------  ---------------
     5     -0.704987  1 H  pz                10      0.704311  2 H  pz         
     2      0.111095  1 H  s                  7      0.111201  2 H  s          
     1     -0.103719  1 H  s                  6     -0.103737  2 H  s          
     8      0.044905  2 H  px                 3     -0.038138  1 H  px         

 Vector    6  Occ=7.289920D-04  E= 0.000000D+00
              MO Center=  1.4D-03, -1.8D-03, -5.0D-04, r^2= 1.4D+00
   Bfn.  Coefficient  Atom+Function         Bfn.  Coefficient  Atom+Function  
  ----- ------------  ---------------      ----- ------------  ---------------
     9     -0.551906  2 H  py                 4     -0.515444  1 H  py         
     3      0.483718  1 H  px                 8      0.440176  2 H  px         
     6      0.031218  2 H  s                  7     -0.028693  2 H  s          
    10     -0.027489  2 H  pz         

 Vector    7  Occ=7.299122D-04  E= 0.000000D+00
              MO Center= -1.1D-03, -7.2D-04,  2.6D-04, r^2= 1.4D+00
   Bfn.  Coefficient  Atom+Function         Bfn.  Coefficient  Atom+Function  
  ----- ------------  ---------------      ----- ------------  ---------------
     3     -0.561366  1 H  px                 8     -0.503737  2 H  px         
     9     -0.495800  2 H  py                 4     -0.428720  1 H  py         

 Vector    8  Occ=6.914970D-04  E= 0.000000D+00
              MO Center= -3.3D-03, -3.0D-03, -6.5D-05, r^2= 1.4D+00
   Bfn.  Coefficient  Atom+Function         Bfn.  Coefficient  Atom+Function  
  ----- ------------  ---------------      ----- ------------  ---------------
     8     -0.553037  2 H  px                 3      0.512753  1 H  px         
     4      0.483395  1 H  py                 9     -0.440442  2 H  py         
     5     -0.047186  1 H  pz                 1     -0.046390  1 H  s          
     2      0.044551  1 H  s          

 Vector    9  Occ=7.651661D-04  E= 0.000000D+00
              MO Center=  1.3D-03, -1.5D-03,  2.3D-04, r^2= 1.4D+00
   Bfn.  Coefficient  Atom+Function         Bfn.  Coefficient  Atom+Function  
  ----- ------------  ---------------      ----- ------------  ---------------
     4      0.561991  1 H  py                 9     -0.504123  2 H  py         
     8      0.494197  2 H  px                 3     -0.428052  1 H  px         
    10     -0.039548  2 H  pz                 5      0.029530  1 H  pz         

 Vector   10  Occ=6.547639D-04  E= 0.000000D+00
              MO Center=  3.1D-04,  3.6D-04,  1.7D-04, r^2= 1.5D+00
   Bfn.  Coefficient  Atom+Function         Bfn.  Coefficient  Atom+Function  
  ----- ------------  ---------------      ----- ------------  ---------------
     5      0.708091  1 H  pz                10      0.709640  2 H  pz         
     2      0.177495  1 H  s                  7     -0.176448  2 H  s          
     1     -0.119270  1 H  s                  6      0.117966  2 H  s          
     3      0.044280  1 H  px         


 Task  times  cpu:     2972.5s     wall:     3575.4s
 Summary of allocated global arrays
-----------------------------------
  No active global arrays



                         GA Statistics for process    0
                         ------------------------------

       create   destroy   get      put      acc     scatter   gather  read&inc
calls:   44       44     1.03e+09 4.41e+05 5.86e+05    0        0       11     
number of processes/call 1.00e+00 1.00e+00 1.00e+00 0.00e+00 0.00e+00
bytes total:             8.22e+11 4.68e+08 5.85e+08 0.00e+00 0.00e+00 8.80e+01
bytes remote:            0.00e+00 0.00e+00 0.00e+00 0.00e+00 0.00e+00 0.00e+00
Max memory consumed for GA by this process: 268000 bytes
MA_summarize_allocated_blocks: starting scan ...
MA_summarize_allocated_blocks: scan completed: 0 heap blocks, 0 stack blocks
MA usage statistics:

	allocation statistics:
					      heap	     stack
					      ----	     -----
	current number of blocks	         0	         0
	maximum number of blocks	        19	        17
	current total bytes		         0	         0
	maximum total bytes		   3205416	  22508616
	maximum total K-bytes		      3206	     22509
	maximum total M-bytes		         4	        23


                                NWChem Input Module
                                -------------------





                                     CITATION
                                     --------
                Please cite the following reference when publishing
                           results obtained with NWChem:

                 M. Valiev, E.J. Bylaska, N. Govind, K. Kowalski,
              T.P. Straatsma, H.J.J. van Dam, D. Wang, J. Nieplocha,
                        E. Apra, T.L. Windus, W.A. de Jong
                 "NWChem: a comprehensive and scalable open-source
                  solution for large scale molecular simulations"
                      Comput. Phys. Commun. 181, 1477 (2010)
                           doi:10.1016/j.cpc.2010.04.018

                                      AUTHORS
                                      -------
          E. Apra, E. J. Bylaska, W. A. de Jong, N. Govind, K. Kowalski,
       T. P. Straatsma, M. Valiev, H. J. J. van Dam, D. Wang, T. L. Windus,
        J. Hammond, J. Autschbach, K. Bhaskaran-Nair, J. Brabec, K. Lopata,
    S. A. Fischer, S. Krishnamoorthy, M. Jacquelin, W. Ma, M. Klemm, O. Villa,
      Y. Chen, V. Anisimov, F. Aquino, S. Hirata, M. T. Hackler, V. Konjkov,
      T. Risthaus, M. Malagoli, A. Marenich, A. Otero-de-la-Roza, J. Mullin,
        P. Nichols, R. Peverati, J. Pittner, Y. Zhao, P.-D. Fan, A. Fonari,
       M. Williamson, R. J. Harrison, J. R. Rehr, M. Dupuis, D. Silverstein,
    D. M. A. Smith, J. Nieplocha, V. Tipparaju, M. Krishnan, B. E. Van Kuiken,
        A. Vazquez-Mayagoitia, L. Jensen, M. Swart, Q. Wu, T. Van Voorhis,
     A. A. Auer, M. Nooijen, L. D. Crosby, E. Brown, G. Cisneros, G. I. Fann,
   H. Fruchtl, J. Garza, K. Hirao, R. A. Kendall, J. A. Nichols, K. Tsemekhman,
    K. Wolinski, J. Anchell, D. E. Bernholdt, P. Borowski, T. Clark, D. Clerc,
   H. Dachsel, M. J. O. Deegan, K. Dyall, D. Elwood, E. Glendening, M. Gutowski,
   A. C. Hess, J. Jaffe, B. G. Johnson, J. Ju, R. Kobayashi, R. Kutteh, Z. Lin,
   R. Littlefield, X. Long, B. Meng, T. Nakajima, S. Niu, L. Pollack, M. Rosing,
   K. Glaesemann, G. Sandrone, M. Stave, H. Taylor, G. Thomas, J. H. van Lenthe,
                               A. T. Wong, Z. Zhang.

 Total times  cpu:     2972.5s     wall:     3575.4s
