 argument  1 = input-wf.nw



============================== echo of input deck ==============================
echo
start wfn1_dat
geometry units au noautoz
  H 0 0 -2.34434600000000000000
  H 0 0  2.34434600000000000000
  symmetry cs
end
basis
  H library 6-31g**
end
set wfn1:input_vectors "atomic"
set wfn1:solver "monte-carlo"
set wfn1:print_error F
set wfn1:t_initial 0.1
#set wfn1:corr_expr "wfn1_mx"
set wfn1:corr_expr "wfn1c"
set wfn1:t_bath 0.0
set wfn1:maxit  20000
task wfn1 energy
================================================================================


                                         
                                         


              Northwest Computational Chemistry Package (NWChem) 6.8
              ------------------------------------------------------


                    Environmental Molecular Sciences Laboratory
                       Pacific Northwest National Laboratory
                                Richland, WA 99352

                              Copyright (c) 1994-2015
                       Pacific Northwest National Laboratory
                            Battelle Memorial Institute

             NWChem is an open-source computational chemistry package
                        distributed under the terms of the
                      Educational Community License (ECL) 2.0
             A copy of the license is included with this distribution
                              in the LICENSE.TXT file

                                  ACKNOWLEDGMENT
                                  --------------

            This software and its documentation were developed at the
            EMSL at Pacific Northwest National Laboratory, a multiprogram
            national laboratory, operated for the U.S. Department of Energy
            by Battelle under Contract Number DE-AC05-76RL01830. Support
            for this work was provided by the Department of Energy Office
            of Biological and Environmental Research, Office of Basic
            Energy Sciences, and the Office of Advanced Scientific Computing.


           Job information
           ---------------

    hostname        = erato
    program         = ../../../bin/LINUX64/nwchem
    date            = Tue Mar  2 03:34:12 2021

    compiled        = Sun_Feb_28_18:02:42_2021
    source          = /home/hvandam/nwchem-1-wfn1
    nwchem branch   = Development
    nwchem revision = nwchem_on_git-124-gad72d19fff205e319ffbbf2bca37a04ded6ad57b
    ga revision     = nwchem_on_git-124-gad72d19
    use scalapack   = F
    input           = input-wf.nw
    prefix          = wfn1_dat.
    data base       = ./wfn1_dat.db
    status          = startup
    nproc           =        1
    time left       =     -1s



           Memory information
           ------------------

    heap     =   13107198 doubles =    100.0 Mbytes
    stack    =   13107195 doubles =    100.0 Mbytes
    global   =   26214400 doubles =    200.0 Mbytes (distinct from heap & stack)
    total    =   52428793 doubles =    400.0 Mbytes
    verify   = yes
    hardfail = no 


           Directory information
           ---------------------

  0 permanent = .
  0 scratch   = .




                                NWChem Input Module
                                -------------------


 Turning off AUTOSYM since
 SYMMETRY directive was detected!



                             Geometry "geometry" -> ""
                             -------------------------

 Output coordinates in a.u. (scale by  1.000000000 to convert to a.u.)

  No.       Tag          Charge          X              Y              Z
 ---- ---------------- ---------- -------------- -------------- --------------
    1 H                    1.0000     0.00000000     0.00000000    -2.34434600
    2 H                    1.0000     0.00000000     0.00000000     2.34434600

      Atomic Mass 
      ----------- 

      H                  1.007825


 Effective nuclear repulsion energy (a.u.)       0.2132790979

            Nuclear Dipole moment (a.u.) 
            ----------------------------
        X                 Y               Z
 ---------------- ---------------- ----------------
     0.0000000000     0.0000000000     0.0000000000

      Symmetry information
      --------------------

 Group name             Cs        
 Group number              2
 Group order               2
 No. of unique centers     1

      Symmetry unique atoms

     1


            XYZ format geometry
            -------------------
     2
 geometry
 H                     0.00000000     0.00000000    -1.24057457
 H                     0.00000000     0.00000000     1.24057457

                      Basis "ao basis" -> "" (cartesian)
                      -----
  H (Hydrogen)
  ------------
            Exponent  Coefficients 
       -------------- ---------------------------------------------------------
  1 S  1.87311370E+01  0.033495
  1 S  2.82539370E+00  0.234727
  1 S  6.40121700E-01  0.813757

  2 S  1.61277800E-01  1.000000

  3 P  1.10000000E+00  1.000000



 Summary of "ao basis" -> "" (cartesian)
 ------------------------------------------------------------------------------
       Tag                 Description            Shells   Functions and Types
 ---------------- ------------------------------  ------  ---------------------
 H                          6-31g**                  3        5   2s1p



                                NWChem WFN1 Module
                                ------------------



          No. of electrons :     2
           Alpha electrons :     1
            Beta electrons :     1
          Charge           :     0
          Spin multiplicity:     1

 HvD: wfn1_inpdft
 HvD: nquad_task =                     1
 HvD: iangquad   =                     0
 HvD: gridtype   = user      
 HvD: leb        =  T
 HvD: radgrid    = murakn    
 HvD: trunc_neigh=  T
 HvD: lssw       =  T
 HvD: whichssw   = erf1    
 HvD: mxnrad     =                     0
 HvD: mxnang     =                     0
 HVD: wfn1: movecs_in  = atomic                                                                                                                                                                                                                                                          
 HVD: wfn1: movecs_out = ./wfn1_dat.movecs                                                                                                                                                                                                                                               

      Superposition of Atomic Density Guess
      -------------------------------------

 Sum of atomic energies:          -0.99646508

      Non-variational initial energy
      ------------------------------

 Total energy =      -0.684664
 1-e energy   =      -1.422993
 2-e energy   =       0.525049
 HOMO         =      -0.230623
 LUMO         =      -0.148565

 iteration              energy           error
 ---------              ------           -----
         0         -0.85592958        0.200000
         1         -0.86365660        0.200000
         2         -0.86619570        0.200000
         3         -0.86659218        0.200000
         4         -0.86788601        0.200000
         5         -0.87121667        0.200000
         6         -0.87238182        0.200000
         7         -0.87262701        0.200000
         8         -0.87283125        0.200000
         9         -0.87444361        0.200000
        10         -0.87444802        0.200000
        11         -0.87637451        0.200000
        12         -0.87664939        0.200000
        13         -0.87728931        0.200000
        14         -0.87742789        0.200000
        15         -0.87754227        0.200000
        16         -0.87781154        0.200000
        17         -0.87792466        0.200000
        18         -0.87814551        0.200000
        19         -0.87865926        0.200000
        20         -0.87949930        0.185175
        21         -0.87996808        0.185175
        22         -0.88035596        0.158740
        23         -0.88065816        0.146973
        24         -0.88070732        0.146973
        25         -0.88112132        0.100000
        26         -0.88125981        0.100000
        27         -0.88141349        0.092587
        28         -0.88143141        0.092587
        29         -0.88156639        0.092587
        30         -0.88160555        0.092587
        31         -0.88167042        0.085724
        32         -0.88171766        0.085724
        33         -0.88186418        0.085724
        34         -0.88196987        0.085724
        35         -0.88198671        0.079370
        36         -0.88212492        0.079370
        37         -0.88218263        0.079370
        38         -0.88228201        0.079370
        39         -0.88230990        0.079370
        40         -0.88259922        0.079370
        41         -0.88262277        0.073487
        42         -0.88264977        0.068040
        43         -0.88267069        0.068040
        44         -0.88271861        0.068040
        45         -0.88278985        0.068040
        46         -0.88280329        0.068040
        47         -0.88288295        0.068040
        48         -0.88288496        0.068040
        49         -0.88292112        0.062996
        50         -0.88298201        0.058326
        51         -0.88300334        0.058326
        52         -0.88310990        0.058326
        53         -0.88315899        0.058326
        54         -0.88317406        0.058326
        55         -0.88317849        0.058326
        56         -0.88319570        0.058326
        57         -0.88320296        0.050000
        58         -0.88320519        0.046294
        59         -0.88322872        0.046294
        60         -0.88325217        0.046294
        61         -0.88325531        0.046294
        62         -0.88326359        0.046294
        63         -0.88331544        0.046294
        64         -0.88332227        0.046294
        65         -0.88334959        0.046294
        66         -0.88337746        0.042862
        67         -0.88338894        0.036743
        68         -0.88340829        0.036743
        69         -0.88341878        0.034020
        70         -0.88341892        0.034020
        71         -0.88342429        0.031498
        72         -0.88346011        0.031498
        73         -0.88347627        0.031498
        74         -0.88347663        0.029163
        75         -0.88350915        0.029163
        76         -0.88350924        0.029163
        77         -0.88351715        0.029163
        78         -0.88355452        0.029163
        79         -0.88357802        0.029163
        80         -0.88360744        0.029163
        81         -0.88363802        0.029163
        82         -0.88364278        0.029163
        83         -0.88364689        0.027001
        84         -0.88365006        0.025000
        85         -0.88365615        0.025000
        86         -0.88365856        0.025000
        87         -0.88367529        0.025000
        88         -0.88368330        0.025000
        89         -0.88369926        0.025000
        90         -0.88371496        0.025000
        91         -0.88372006        0.025000
        92         -0.88372178        0.025000
        93         -0.88372565        0.025000
        94         -0.88372935        0.025000
        95         -0.88373340        0.025000
        96         -0.88374777        0.025000
        97         -0.88375116        0.025000
        98         -0.88375173        0.025000
        99         -0.88375560        0.025000
       100         -0.88377525        0.025000
       101         -0.88379081        0.025000
       102         -0.88380755        0.025000
       103         -0.88380861        0.023147
       104         -0.88381828        0.023147
       105         -0.88382457        0.023147
       106         -0.88382806        0.023147
       107         -0.88384286        0.023147
       108         -0.88384680        0.023147
       109         -0.88385748        0.023147
       110         -0.88387162        0.023147
       111         -0.88387498        0.023147
       112         -0.88389539        0.023147
       113         -0.88389896        0.023147
       114         -0.88390259        0.023147
       115         -0.88391183        0.023147
       116         -0.88391301        0.023147
       117         -0.88394010        0.023147
       118         -0.88395235        0.021431
       119         -0.88395558        0.021431
       120         -0.88395631        0.021431
       121         -0.88396418        0.019843
       122         -0.88396832        0.019843
       123         -0.88396889        0.019843
       124         -0.88397957        0.019843
       125         -0.88398226        0.018372
       126         -0.88398261        0.018372
       127         -0.88398582        0.018372
       128         -0.88399646        0.018372
       129         -0.88399718        0.018372
       130         -0.88399918        0.018372
       131         -0.88399965        0.018372
       132         -0.88400064        0.018372
       133         -0.88400956        0.018372
       134         -0.88401504        0.018372
       135         -0.88402329        0.018372
       136         -0.88402904        0.018372
       137         -0.88402917        0.017010
       138         -0.88403427        0.017010
       139         -0.88403583        0.017010
       140         -0.88403729        0.017010
       141         -0.88403915        0.017010
       142         -0.88404404        0.017010
       143         -0.88405935        0.017010
       144         -0.88406046        0.017010
       145         -0.88407371        0.017010
       146         -0.88408545        0.017010
       147         -0.88408746        0.017010
       148         -0.88409563        0.017010
       149         -0.88410368        0.017010
       150         -0.88410750        0.015749
       151         -0.88411786        0.015749
       152         -0.88412044        0.015749
       153         -0.88413040        0.015749
       154         -0.88413111        0.015749
       155         -0.88413154        0.015749
       156         -0.88413851        0.015749
       157         -0.88414209        0.015749
       158         -0.88414552        0.015749
       159         -0.88414553        0.015749
       160         -0.88414574        0.015749
       161         -0.88415397        0.015749
       162         -0.88415953        0.015749
       163         -0.88416062        0.015749
       164         -0.88416824        0.015749
       165         -0.88416920        0.015749
       166         -0.88417044        0.014582
       167         -0.88418175        0.014582
       168         -0.88418177        0.013501
       169         -0.88418649        0.013501
       170         -0.88418674        0.013501
       171         -0.88418722        0.013501
       172         -0.88418804        0.013501
       173         -0.88419900        0.013501
       174         -0.88420001        0.013501
       175         -0.88420877        0.013501
       176         -0.88421666        0.013501
       177         -0.88421807        0.013501
       178         -0.88421859        0.013501
       179         -0.88422187        0.013501
       180         -0.88422461        0.013501
       181         -0.88422622        0.013501
       182         -0.88423361        0.013501
       183         -0.88423386        0.013501
       184         -0.88423844        0.013501
       185         -0.88424029        0.013501
       186         -0.88424518        0.013501
       187         -0.88424577        0.013501
       188         -0.88424758        0.013501
       189         -0.88424877        0.013501
       190         -0.88425053        0.013501
       191         -0.88425326        0.013501
       192         -0.88425677        0.013501
       193         -0.88425842        0.013501
       194         -0.88425984        0.013501
       195         -0.88426019        0.013501
       196         -0.88427799        0.013501
       197         -0.88428962        0.013501
       198         -0.88430277        0.013501
       199         -0.88431238        0.013501
       200         -0.88431477        0.013501
       201         -0.88431825        0.013501
       202         -0.88432455        0.013501
       203         -0.88432902        0.013501
       204         -0.88433042        0.013501
       205         -0.88433613        0.013501
       206         -0.88434520        0.013501
       207         -0.88435426        0.013501
       208         -0.88436003        0.013501
       209         -0.88436092        0.013501
       210         -0.88437134        0.013501
       211         -0.88437481        0.013501
       212         -0.88437620        0.013501
       213         -0.88437700        0.013501
       214         -0.88438058        0.013501
       215         -0.88438591        0.013501
       216         -0.88438967        0.013501
       217         -0.88439358        0.013501
       218         -0.88439531        0.013501
       219         -0.88439950        0.013501
       220         -0.88440026        0.013501
       221         -0.88440130        0.013501
       222         -0.88440228        0.013501
       223         -0.88440344        0.013501
       224         -0.88440765        0.013501
       225         -0.88442227        0.013501
       226         -0.88442560        0.013501
       227         -0.88443319        0.013501
       228         -0.88443627        0.013501
       229         -0.88444077        0.013501
       230         -0.88445087        0.013501
       231         -0.88446206        0.013501
       232         -0.88446923        0.013501
       233         -0.88447036        0.013501
       234         -0.88447373        0.013501
       235         -0.88447928        0.013501
       236         -0.88448302        0.013501
       237         -0.88449002        0.013501
       238         -0.88449240        0.013501
       239         -0.88449688        0.013501
       240         -0.88450179        0.013501
       241         -0.88450223        0.013501
       242         -0.88451583        0.013501
       243         -0.88451874        0.013501
       244         -0.88451876        0.013501
       245         -0.88451971        0.013501
       246         -0.88452367        0.013501
       247         -0.88452789        0.013501
       248         -0.88453958        0.013501
       249         -0.88454025        0.013501
       250         -0.88454536        0.013501
       251         -0.88455006        0.013501
       252         -0.88455271        0.013501
       253         -0.88455507        0.013501
       254         -0.88455620        0.013501
       255         -0.88455772        0.013501
       256         -0.88456102        0.013501
       257         -0.88457186        0.013501
       258         -0.88457507        0.013501
       259         -0.88458007        0.013501
       260         -0.88458155        0.013501
       261         -0.88458547        0.013501
       262         -0.88459041        0.013501
       263         -0.88459984        0.013501
       264         -0.88460558        0.013501
       265         -0.88460715        0.013501
       266         -0.88460741        0.013501
       267         -0.88460801        0.013501
       268         -0.88461331        0.013501
       269         -0.88461631        0.013501
       270         -0.88461904        0.013501
       271         -0.88461976        0.013501
       272         -0.88462000        0.013501
       273         -0.88462418        0.013501
       274         -0.88462955        0.013501
       275         -0.88463388        0.013501
       276         -0.88463509        0.013501
       277         -0.88463595        0.013501
       278         -0.88463701        0.013501
       279         -0.88463957        0.013501
       280         -0.88464662        0.013501
       281         -0.88464968        0.013501
       282         -0.88465377        0.013501
       283         -0.88465619        0.013501
       284         -0.88465753        0.013501
       285         -0.88466002        0.013501
       286         -0.88466279        0.013501
       287         -0.88467109        0.012500
       288         -0.88467615        0.012500
       289         -0.88467712        0.012500
       290         -0.88467945        0.012500
       291         -0.88468052        0.012500
       292         -0.88468063        0.012500
       293         -0.88468245        0.012500
       294         -0.88468434        0.012500
       295         -0.88468659        0.012500
       296         -0.88469133        0.012500
       297         -0.88469165        0.012500
       298         -0.88469193        0.012500
       299         -0.88469397        0.012500
       300         -0.88469653        0.012500
       301         -0.88469884        0.012500
       302         -0.88470672        0.012500
       303         -0.88471118        0.012500
       304         -0.88471147        0.012500
       305         -0.88471327        0.012500
       306         -0.88471788        0.012500
       307         -0.88472355        0.012500
       308         -0.88472929        0.012500
       309         -0.88473013        0.012500
       310         -0.88473278        0.012500
       311         -0.88474756        0.012500
       312         -0.88475060        0.012500
       313         -0.88475255        0.012500
       314         -0.88475379        0.012500
       315         -0.88476009        0.012500
       316         -0.88476149        0.012500
       317         -0.88476162        0.012500
       318         -0.88477516        0.012500
       319         -0.88478777        0.012500
       320         -0.88479312        0.012500
       321         -0.88479978        0.012500
       322         -0.88480729        0.012500
       323         -0.88480779        0.012500
       324         -0.88481146        0.012500
       325         -0.88481371        0.012500
       326         -0.88481379        0.012500
       327         -0.88481520        0.012500
       328         -0.88482892        0.012500
       329         -0.88482984        0.012500
       330         -0.88483373        0.012500
       331         -0.88483380        0.012500
       332         -0.88483444        0.012500
       333         -0.88484170        0.012500
       334         -0.88485629        0.012500
       335         -0.88485741        0.012500
       336         -0.88486114        0.012500
       337         -0.88487366        0.012500
       338         -0.88487859        0.012500
       339         -0.88487956        0.012500
       340         -0.88488964        0.012500
       341         -0.88489951        0.012500
       342         -0.88490928        0.012500
       343         -0.88491418        0.012500
       344         -0.88491470        0.012500
       345         -0.88491838        0.012500
       346         -0.88492470        0.012500
       347         -0.88493108        0.012500
       348         -0.88493182        0.011573
       349         -0.88494488        0.011573
       350         -0.88494751        0.010716
       351         -0.88495047        0.010716
       352         -0.88495178        0.010716
       353         -0.88495876        0.010716
       354         -0.88495972        0.010716
       355         -0.88495979        0.010716
       356         -0.88496423        0.010716
       357         -0.88496663        0.010716
       358         -0.88496860        0.010716
       359         -0.88498336        0.010716
       360         -0.88498760        0.010716
       361         -0.88499058        0.010716
       362         -0.88499210        0.010716
       363         -0.88499552        0.010716
       364         -0.88499714        0.010716
       365         -0.88499840        0.010716
       366         -0.88500015        0.010716
       367         -0.88500133        0.010716
       368         -0.88500593        0.010716
       369         -0.88501943        0.010716
       370         -0.88502089        0.010716
       371         -0.88502489        0.010716
       372         -0.88502673        0.010716
       373         -0.88503788        0.010716
       374         -0.88504279        0.010716
       375         -0.88505689        0.010716
       376         -0.88505851        0.010716
       377         -0.88506306        0.010716
       378         -0.88506852        0.010716
       379         -0.88507833        0.010716
       380         -0.88508530        0.010716
       381         -0.88508809        0.010716
       382         -0.88508856        0.010716
       383         -0.88509397        0.009921
       384         -0.88509951        0.009921
       385         -0.88510021        0.009921
       386         -0.88510373        0.009921
       387         -0.88510568        0.009921
       388         -0.88511152        0.009921
       389         -0.88511475        0.009921
       390         -0.88511806        0.009921
       391         -0.88512008        0.009921
       392         -0.88512462        0.009921
       393         -0.88513288        0.009921
       394         -0.88513350        0.009921
       395         -0.88513545        0.009921
       396         -0.88514580        0.009921
       397         -0.88514613        0.009921
       398         -0.88514738        0.009921
       399         -0.88514895        0.009921
       400         -0.88515364        0.009921
       401         -0.88515393        0.009921
       402         -0.88515615        0.009921
       403         -0.88515873        0.009921
       404         -0.88515891        0.009921
       405         -0.88516066        0.009921
       406         -0.88517115        0.009921
       407         -0.88517269        0.009921
       408         -0.88517444        0.009921
       409         -0.88517624        0.009921
       410         -0.88518210        0.009921
       411         -0.88518834        0.009921
       412         -0.88518915        0.009921
       413         -0.88518969        0.009921
       414         -0.88519525        0.009921
       415         -0.88519845        0.009921
       416         -0.88520478        0.009921
       417         -0.88520597        0.009921
       418         -0.88520609        0.009921
       419         -0.88520787        0.009921
       420         -0.88520920        0.009921
       421         -0.88522085        0.009921
       422         -0.88522305        0.009921
       423         -0.88522403        0.009921
       424         -0.88522847        0.009921
       425         -0.88523524        0.009921
       426         -0.88524071        0.009186
       427         -0.88524145        0.009186
       428         -0.88524146        0.009186
       429         -0.88524193        0.009186
       430         -0.88524438        0.009186
       431         -0.88524515        0.009186
       432         -0.88524537        0.009186
       433         -0.88525181        0.009186
       434         -0.88525954        0.009186
       435         -0.88526333        0.009186
       436         -0.88526528        0.009186
       437         -0.88526653        0.009186
       438         -0.88526974        0.009186
       439         -0.88527887        0.009186
       440         -0.88528610        0.009186
       441         -0.88529022        0.009186
       442         -0.88529293        0.009186
       443         -0.88529848        0.009186
       444         -0.88530028        0.009186
       445         -0.88530540        0.009186
       446         -0.88530727        0.009186
       447         -0.88530778        0.009186
       448         -0.88531135        0.009186
       449         -0.88531503        0.009186
       450         -0.88531722        0.009186
       451         -0.88531781        0.009186
       452         -0.88532255        0.009186
       453         -0.88532553        0.009186
       454         -0.88532816        0.009186
       455         -0.88532948        0.009186
       456         -0.88533238        0.009186
       457         -0.88533652        0.009186
       458         -0.88533730        0.009186
       459         -0.88533840        0.009186
       460         -0.88534272        0.009186
       461         -0.88534856        0.009186
       462         -0.88534980        0.009186
       463         -0.88535217        0.009186
       464         -0.88535680        0.009186
       465         -0.88535736        0.009186
       466         -0.88536249        0.009186
       467         -0.88536711        0.009186
       468         -0.88537390        0.009186
       469         -0.88537681        0.009186
       470         -0.88537868        0.009186
       471         -0.88537883        0.009186
       472         -0.88538594        0.009186
       473         -0.88538641        0.009186
       474         -0.88538683        0.009186
       475         -0.88538685        0.009186
       476         -0.88539302        0.009186
       477         -0.88539327        0.009186
       478         -0.88539486        0.009186
       479         -0.88539753        0.009186
       480         -0.88539801        0.009186
       481         -0.88539900        0.009186
       482         -0.88540509        0.009186
       483         -0.88540528        0.009186
       484         -0.88541367        0.009186
       485         -0.88541449        0.009186
       486         -0.88541676        0.009186
       487         -0.88541942        0.009186
       488         -0.88542191        0.009186
       489         -0.88542938        0.009186
       490         -0.88543193        0.009186
       491         -0.88543585        0.009186
       492         -0.88543735        0.009186
       493         -0.88543988        0.009186
       494         -0.88544227        0.009186
       495         -0.88544329        0.009186
       496         -0.88544406        0.009186
       497         -0.88544589        0.009186
       498         -0.88544928        0.009186
       499         -0.88545476        0.009186
       500         -0.88546236        0.009186
       501         -0.88546293        0.009186
       502         -0.88546429        0.009186
       503         -0.88546629        0.009186
       504         -0.88546925        0.009186
       505         -0.88547398        0.009186
       506         -0.88547901        0.009186
       507         -0.88548347        0.009186
       508         -0.88548491        0.009186
       509         -0.88548966        0.009186
       510         -0.88549298        0.009186
       511         -0.88549593        0.009186
       512         -0.88549788        0.009186
       513         -0.88550385        0.009186
       514         -0.88551031        0.009186
       515         -0.88551414        0.009186
       516         -0.88551751        0.009186
       517         -0.88551799        0.009186
       518         -0.88551895        0.009186
       519         -0.88551950        0.009186
       520         -0.88552064        0.009186
       521         -0.88552479        0.009186
       522         -0.88552909        0.009186
       523         -0.88553239        0.009186
       524         -0.88553864        0.009186
       525         -0.88554125        0.009186
       526         -0.88554314        0.009186
       527         -0.88554389        0.009186
       528         -0.88554441        0.009186
       529         -0.88554441        0.009186
       530         -0.88555055        0.009186
       531         -0.88555945        0.009186
       532         -0.88556054        0.009186
       533         -0.88556640        0.009186
       534         -0.88556721        0.009186
       535         -0.88556835        0.009186
       536         -0.88556925        0.009186
       537         -0.88557718        0.009186
       538         -0.88558153        0.009186
       539         -0.88558444        0.009186
       540         -0.88558627        0.009186
       541         -0.88559127        0.009186
       542         -0.88559331        0.009186
       543         -0.88559568        0.009186
       544         -0.88559683        0.009186
       545         -0.88560089        0.009186
       546         -0.88560164        0.009186
       547         -0.88560338        0.009186
       548         -0.88560421        0.009186
       549         -0.88560497        0.009186
       550         -0.88561148        0.009186
       551         -0.88561852        0.009186
       552         -0.88561933        0.009186
       553         -0.88562115        0.009186
       554         -0.88562122        0.009186
       555         -0.88562164        0.009186
       556         -0.88562667        0.009186
       557         -0.88563101        0.009186
       558         -0.88563632        0.009186
       559         -0.88563648        0.009186
       560         -0.88563794        0.009186
       561         -0.88563862        0.009186
       562         -0.88564106        0.009186
       563         -0.88564198        0.009186
       564         -0.88564355        0.009186
       565         -0.88565996        0.009186
       566         -0.88566484        0.009186
       567         -0.88566946        0.009186
       568         -0.88567477        0.009186
       569         -0.88567578        0.009186
       570         -0.88568016        0.009186
       571         -0.88568479        0.009186
       572         -0.88568815        0.009186
       573         -0.88569350        0.009186
       574         -0.88569408        0.009186
       575         -0.88569740        0.009186
       576         -0.88570116        0.009186
       577         -0.88570300        0.009186
       578         -0.88570697        0.009186
       579         -0.88571382        0.009186
       580         -0.88571393        0.009186
       581         -0.88571590        0.009186
       582         -0.88571951        0.009186
       583         -0.88572660        0.009186
       584         -0.88572741        0.009186
       585         -0.88573247        0.009186
       586         -0.88573372        0.009186
       587         -0.88573556        0.009186
       588         -0.88573967        0.009186
       589         -0.88574014        0.009186
       590         -0.88574124        0.009186
       591         -0.88574818        0.009186
       592         -0.88575122        0.009186
       593         -0.88575412        0.009186
       594         -0.88575820        0.009186
       595         -0.88576099        0.009186
       596         -0.88576171        0.009186
       597         -0.88576478        0.009186
       598         -0.88576614        0.009186
       599         -0.88576818        0.009186
       600         -0.88577079        0.009186
       601         -0.88578173        0.009186
       602         -0.88578767        0.009186
       603         -0.88578978        0.009186
       604         -0.88579038        0.009186
       605         -0.88579530        0.009186
       606         -0.88579764        0.009186
       607         -0.88580194        0.009186
       608         -0.88580724        0.009186
       609         -0.88581062        0.009186
       610         -0.88581079        0.009186
       611         -0.88581285        0.009186
       612         -0.88581632        0.009186
       613         -0.88582473        0.009186
       614         -0.88582613        0.009186
       615         -0.88583331        0.009186
       616         -0.88583376        0.009186
       617         -0.88583574        0.009186
       618         -0.88583613        0.009186
       619         -0.88583988        0.009186
       620         -0.88584560        0.009186
       621         -0.88584790        0.009186
       622         -0.88585040        0.009186
       623         -0.88585478        0.009186
       624         -0.88585835        0.009186
       625         -0.88586354        0.009186
       626         -0.88586743        0.009186
       627         -0.88587011        0.009186
       628         -0.88587107        0.009186
       629         -0.88587635        0.009186
       630         -0.88587651        0.009186
       631         -0.88588078        0.009186
       632         -0.88588269        0.009186
       633         -0.88588299        0.009186
       634         -0.88588408        0.009186
       635         -0.88588488        0.009186
       636         -0.88588646        0.009186
       637         -0.88588806        0.009186
       638         -0.88589001        0.009186
       639         -0.88589217        0.009186
       640         -0.88589721        0.009186
       641         -0.88590623        0.009186
       642         -0.88591590        0.009186
       643         -0.88591636        0.009186
       644         -0.88591694        0.009186
       645         -0.88592196        0.009186
       646         -0.88592526        0.009186
       647         -0.88592556        0.009186
       648         -0.88593351        0.009186
       649         -0.88593729        0.009186
       650         -0.88593748        0.009186
       651         -0.88594396        0.009186
       652         -0.88594787        0.009186
       653         -0.88595054        0.009186
       654         -0.88595127        0.009186
       655         -0.88595350        0.009186
       656         -0.88596094        0.009186
       657         -0.88596925        0.009186
       658         -0.88596967        0.009186
       659         -0.88597306        0.009186
       660         -0.88597467        0.009186
       661         -0.88597497        0.009186
       662         -0.88597693        0.009186
       663         -0.88598034        0.009186
       664         -0.88598681        0.009186
       665         -0.88598855        0.009186
       666         -0.88599519        0.009186
       667         -0.88600113        0.009186
       668         -0.88600216        0.009186
       669         -0.88601019        0.009186
       670         -0.88601216        0.009186
       671         -0.88601487        0.009186
       672         -0.88602959        0.009186
       673         -0.88603146        0.009186
       674         -0.88603958        0.009186
       675         -0.88604130        0.009186
       676         -0.88604243        0.009186
       677         -0.88604639        0.009186
       678         -0.88605060        0.009186
       679         -0.88605307        0.009186
       680         -0.88605665        0.009186
       681         -0.88605873        0.009186
       682         -0.88606201        0.009186
       683         -0.88606617        0.009186
       684         -0.88606838        0.009186
       685         -0.88606985        0.009186
       686         -0.88608270        0.009186
       687         -0.88608538        0.009186
       688         -0.88608782        0.009186
       689         -0.88609755        0.009186
       690         -0.88610515        0.009186
       691         -0.88611078        0.009186
       692         -0.88611424        0.009186
       693         -0.88612489        0.009186
       694         -0.88612899        0.009186
       695         -0.88613648        0.009186
       696         -0.88614106        0.009186
       697         -0.88615029        0.009186
       698         -0.88615293        0.009186
       699         -0.88615972        0.009186
       700         -0.88616202        0.009186
       701         -0.88616387        0.009186
       702         -0.88616646        0.009186
       703         -0.88616716        0.009186
       704         -0.88617245        0.009186
       705         -0.88617462        0.009186
       706         -0.88617601        0.009186
       707         -0.88617815        0.009186
       708         -0.88618188        0.009186
       709         -0.88618556        0.009186
       710         -0.88618669        0.009186
       711         -0.88618889        0.009186
       712         -0.88619467        0.009186
       713         -0.88619853        0.009186
       714         -0.88620775        0.009186
       715         -0.88620854        0.009186
       716         -0.88621062        0.009186
       717         -0.88621423        0.009186
       718         -0.88621570        0.009186
       719         -0.88621956        0.008505
       720         -0.88622539        0.008505
       721         -0.88623061        0.008505
       722         -0.88623287        0.008505
       723         -0.88623389        0.008505
       724         -0.88623778        0.008505
       725         -0.88623993        0.008505
       726         -0.88624094        0.008505
       727         -0.88624866        0.008505
       728         -0.88625419        0.008505
       729         -0.88625692        0.008505
       730         -0.88625940        0.008505
       731         -0.88625958        0.008505
       732         -0.88626305        0.008505
       733         -0.88626413        0.008505
       734         -0.88626810        0.008505
       735         -0.88627268        0.008505
       736         -0.88627820        0.008505
       737         -0.88628071        0.008505
       738         -0.88628182        0.008505
       739         -0.88628313        0.008505
       740         -0.88628322        0.008505
       741         -0.88629302        0.008505
       742         -0.88629461        0.008505
       743         -0.88629918        0.008505
       744         -0.88630100        0.008505
       745         -0.88630163        0.008505
       746         -0.88630501        0.008505
       747         -0.88630728        0.008505
       748         -0.88630791        0.008505
       749         -0.88630866        0.008505
       750         -0.88631150        0.008505
       751         -0.88631950        0.008505
       752         -0.88632023        0.008505
       753         -0.88632409        0.008505
       754         -0.88632819        0.008505
       755         -0.88633070        0.008505
       756         -0.88633218        0.008505
       757         -0.88633429        0.008505
       758         -0.88633850        0.008505
       759         -0.88633894        0.008505
       760         -0.88633907        0.008505
       761         -0.88633985        0.008505
       762         -0.88634508        0.008505
       763         -0.88634870        0.008505
       764         -0.88635290        0.008505
       765         -0.88635566        0.008505
       766         -0.88636075        0.008505
       767         -0.88636359        0.008505
       768         -0.88636370        0.008505
       769         -0.88637099        0.008505
       770         -0.88637397        0.008505
       771         -0.88638142        0.008505
       772         -0.88638329        0.008505
       773         -0.88638441        0.008505
       774         -0.88638537        0.008505
       775         -0.88638985        0.008505
       776         -0.88639058        0.008505
       777         -0.88639658        0.008505
       778         -0.88639820        0.008505
       779         -0.88640401        0.008505
       780         -0.88640463        0.008505
       781         -0.88640688        0.008505
       782         -0.88641479        0.008505
       783         -0.88641540        0.008505
       784         -0.88642375        0.008505
       785         -0.88642429        0.008505
       786         -0.88642928        0.008505
       787         -0.88643303        0.008505
       788         -0.88643514        0.008505
       789         -0.88644307        0.008505
       790         -0.88644851        0.008505
       791         -0.88645584        0.008505
       792         -0.88645741        0.008505
       793         -0.88645996        0.008505
       794         -0.88646052        0.008505
       795         -0.88646274        0.008505
       796         -0.88646638        0.008505
       797         -0.88646875        0.008505
       798         -0.88647347        0.008505
       799         -0.88647791        0.008505
       800         -0.88648027        0.008505
       801         -0.88648462        0.008505
       802         -0.88648876        0.008505
       803         -0.88649148        0.008505
       804         -0.88649625        0.008505
       805         -0.88649928        0.008505
       806         -0.88650603        0.008505
       807         -0.88651576        0.008505
       808         -0.88651742        0.008505
       809         -0.88651973        0.008505
       810         -0.88652175        0.008505
       811         -0.88652338        0.008505
       812         -0.88652496        0.008505
       813         -0.88652691        0.008505
       814         -0.88652778        0.008505
       815         -0.88653506        0.008505
       816         -0.88653540        0.008505
       817         -0.88653961        0.008505
       818         -0.88654163        0.008505
       819         -0.88654417        0.008505
       820         -0.88654511        0.008505
       821         -0.88654873        0.008505
       822         -0.88654927        0.008505
       823         -0.88655068        0.008505
       824         -0.88655829        0.008505
       825         -0.88656066        0.008505
       826         -0.88656081        0.008505
       827         -0.88656284        0.008505
       828         -0.88656823        0.008505
       829         -0.88657305        0.008505
       830         -0.88657842        0.008505
       831         -0.88658342        0.008505
       832         -0.88658417        0.008505
       833         -0.88659429        0.008505
       834         -0.88659462        0.008505
       835         -0.88660034        0.008505
       836         -0.88660522        0.008505
       837         -0.88660550        0.008505
       838         -0.88661198        0.008505
       839         -0.88661263        0.008505
       840         -0.88661722        0.008505
       841         -0.88662345        0.008505
       842         -0.88662559        0.008505
       843         -0.88662770        0.008505
       844         -0.88663126        0.008505
       845         -0.88663153        0.008505
       846         -0.88663958        0.008505
       847         -0.88664546        0.008505
       848         -0.88665073        0.008505
       849         -0.88665355        0.008505
       850         -0.88665400        0.008505
       851         -0.88665989        0.008505
       852         -0.88666570        0.008505
       853         -0.88667115        0.008505
       854         -0.88667260        0.008505
       855         -0.88667483        0.008505
       856         -0.88667668        0.008505
       857         -0.88667745        0.008505
       858         -0.88667939        0.008505
       859         -0.88668458        0.008505
       860         -0.88668639        0.008505
       861         -0.88668723        0.008505
       862         -0.88669069        0.008505
       863         -0.88669914        0.008505
       864         -0.88670232        0.008505
       865         -0.88670242        0.008505
       866         -0.88670678        0.008505
       867         -0.88670879        0.008505
       868         -0.88671328        0.008505
       869         -0.88672148        0.008505
       870         -0.88672995        0.008505
       871         -0.88673297        0.008505
       872         -0.88673443        0.008505
       873         -0.88674288        0.008505
       874         -0.88674509        0.008505
       875         -0.88674610        0.008505
       876         -0.88675134        0.008505
       877         -0.88675369        0.008505
       878         -0.88675389        0.008505
       879         -0.88675768        0.008505
       880         -0.88676608        0.008505
       881         -0.88676669        0.008505
       882         -0.88676758        0.008505
       883         -0.88676824        0.008505
       884         -0.88677105        0.008505
       885         -0.88677190        0.008505
       886         -0.88677695        0.008505
       887         -0.88677987        0.008505
       888         -0.88678215        0.008505
       889         -0.88678491        0.008505
       890         -0.88679029        0.008505
       891         -0.88679489        0.008505
       892         -0.88680453        0.008505
       893         -0.88680477        0.008505
       894         -0.88680806        0.008505
       895         -0.88680926        0.008505
       896         -0.88681184        0.008505
       897         -0.88681250        0.008505
       898         -0.88681292        0.008505
       899         -0.88681449        0.008505
       900         -0.88681456        0.008505
       901         -0.88681804        0.008505
       902         -0.88681993        0.008505
       903         -0.88682905        0.008505
       904         -0.88682924        0.008505
       905         -0.88683068        0.008505
       906         -0.88683268        0.008505
       907         -0.88684097        0.008505
       908         -0.88684176        0.008505
       909         -0.88684212        0.008505
       910         -0.88684357        0.008505
       911         -0.88685155        0.008505
       912         -0.88685755        0.008505
       913         -0.88686127        0.008505
       914         -0.88686743        0.008505
       915         -0.88686782        0.008505
       916         -0.88686933        0.008505
       917         -0.88687178        0.008505
       918         -0.88687492        0.008505
       919         -0.88688042        0.008505
       920         -0.88688430        0.008505
       921         -0.88688556        0.008505
       922         -0.88688893        0.008505
       923         -0.88689533        0.008505
       924         -0.88689728        0.008505
       925         -0.88690039        0.008505
       926         -0.88690607        0.008505
       927         -0.88691223        0.008505
       928         -0.88691479        0.008505
       929         -0.88692088        0.008505
       930         -0.88692845        0.008505
       931         -0.88693106        0.008505
       932         -0.88693239        0.008505
       933         -0.88693761        0.008505
       934         -0.88693763        0.008505
       935         -0.88693883        0.008505
       936         -0.88694397        0.008505
       937         -0.88694493        0.008505
       938         -0.88694573        0.008505
       939         -0.88694800        0.008505
       940         -0.88695177        0.008505
       941         -0.88696018        0.008505
       942         -0.88696214        0.008505
       943         -0.88696420        0.008505
       944         -0.88696794        0.008505
       945         -0.88697554        0.008505
       946         -0.88697722        0.008505
       947         -0.88697958        0.008505
       948         -0.88698181        0.008505
       949         -0.88698367        0.008505
       950         -0.88698391        0.008505
       951         -0.88698910        0.008505
       952         -0.88699228        0.008505
       953         -0.88700333        0.008505
       954         -0.88700990        0.008505
       955         -0.88701083        0.008505
       956         -0.88701084        0.008505
       957         -0.88701087        0.008505
       958         -0.88701229        0.008505
       959         -0.88701597        0.008505
       960         -0.88701833        0.008505
       961         -0.88702028        0.008505
       962         -0.88702627        0.008505
       963         -0.88702715        0.008505
       964         -0.88702816        0.008505
       965         -0.88702844        0.008505
       966         -0.88703390        0.008505
       967         -0.88704541        0.008505
       968         -0.88704645        0.008505
       969         -0.88704719        0.008505
       970         -0.88705238        0.008505
       971         -0.88705350        0.008505
       972         -0.88705624        0.008505
       973         -0.88706174        0.008505
       974         -0.88706505        0.008505
       975         -0.88707000        0.008505
       976         -0.88707060        0.008505
       977         -0.88707297        0.008505
       978         -0.88707677        0.008505
       979         -0.88707727        0.008505
       980         -0.88709009        0.008505
       981         -0.88709185        0.008505
       982         -0.88709548        0.008505
       983         -0.88709768        0.008505
       984         -0.88710306        0.008505
       985         -0.88710491        0.008505
       986         -0.88710497        0.008505
       987         -0.88710582        0.008505
       988         -0.88711189        0.008505
       989         -0.88712005        0.008505
       990         -0.88712556        0.008505
       991         -0.88712876        0.008505
       992         -0.88713500        0.008505
       993         -0.88713644        0.008505
       994         -0.88713680        0.008505
       995         -0.88714155        0.008505
       996         -0.88714425        0.008505
       997         -0.88714989        0.008505
       998         -0.88715346        0.008505
       999         -0.88715662        0.008505
      1000         -0.88715844        0.008505
      1001         -0.88716045        0.008505
      1002         -0.88716121        0.008505
      1003         -0.88716181        0.008505
      1004         -0.88716631        0.008505
      1005         -0.88716642        0.008505
      1006         -0.88717620        0.008505
      1007         -0.88718677        0.008505
      1008         -0.88719601        0.008505
      1009         -0.88719716        0.008505
      1010         -0.88719813        0.008505
      1011         -0.88719984        0.008505
      1012         -0.88720005        0.008505
      1013         -0.88720361        0.008505
      1014         -0.88721138        0.008505
      1015         -0.88721624        0.008505
      1016         -0.88721745        0.008505
      1017         -0.88721952        0.008505
      1018         -0.88721960        0.008505
      1019         -0.88722434        0.008505
      1020         -0.88722642        0.008505
      1021         -0.88723065        0.008505
      1022         -0.88723775        0.008505
      1023         -0.88724296        0.008505
      1024         -0.88724420        0.008505
      1025         -0.88724759        0.008505
      1026         -0.88724860        0.008505
      1027         -0.88725095        0.008505
      1028         -0.88725096        0.008505
      1029         -0.88725222        0.008505
      1030         -0.88725668        0.008505
      1031         -0.88725756        0.008505
      1032         -0.88726286        0.008505
      1033         -0.88726330        0.008505
      1034         -0.88726709        0.008505
      1035         -0.88727666        0.008505
      1036         -0.88727936        0.008505
      1037         -0.88728088        0.008505
      1038         -0.88728265        0.008505
      1039         -0.88728446        0.008505
      1040         -0.88728594        0.008505
      1041         -0.88728827        0.008505
      1042         -0.88728907        0.008505
      1043         -0.88729570        0.008505
      1044         -0.88729861        0.008505
      1045         -0.88730192        0.008505
      1046         -0.88730662        0.008505
      1047         -0.88730715        0.008505
      1048         -0.88730800        0.008505
      1049         -0.88731269        0.008505
      1050         -0.88731499        0.008505
      1051         -0.88731542        0.008505
      1052         -0.88732128        0.008505
      1053         -0.88732337        0.008505
      1054         -0.88732655        0.008505
      1055         -0.88732922        0.008505
      1056         -0.88732996        0.008505
      1057         -0.88733011        0.008505
      1058         -0.88733362        0.008505
      1059         -0.88733954        0.008505
      1060         -0.88734231        0.008505
      1061         -0.88734457        0.008505
      1062         -0.88734522        0.008505
      1063         -0.88734917        0.008505
      1064         -0.88735052        0.008505
      1065         -0.88735534        0.008505
      1066         -0.88735764        0.008505
      1067         -0.88736321        0.008505
      1068         -0.88736617        0.008505
      1069         -0.88737375        0.008505
      1070         -0.88737389        0.008505
      1071         -0.88737914        0.008505
      1072         -0.88737943        0.008505
      1073         -0.88738623        0.008505
      1074         -0.88739284        0.008505
      1075         -0.88739374        0.008505
      1076         -0.88739811        0.008505
      1077         -0.88740165        0.008505
      1078         -0.88740804        0.008505
      1079         -0.88741155        0.008505
      1080         -0.88742018        0.008505
      1081         -0.88742343        0.008505
      1082         -0.88742904        0.008505
      1083         -0.88743461        0.008505
      1084         -0.88743830        0.008505
      1085         -0.88744404        0.008505
      1086         -0.88744557        0.008505
      1087         -0.88745398        0.008505
      1088         -0.88745809        0.008505
      1089         -0.88745819        0.008505
      1090         -0.88745831        0.008505
      1091         -0.88746037        0.008505
      1092         -0.88746398        0.008505
      1093         -0.88746426        0.008505
      1094         -0.88747042        0.008505
      1095         -0.88747168        0.008505
      1096         -0.88747248        0.008505
      1097         -0.88747485        0.008505
      1098         -0.88747742        0.008505
      1099         -0.88747778        0.008505
      1100         -0.88748058        0.008505
      1101         -0.88748481        0.008505
      1102         -0.88749129        0.008505
      1103         -0.88749556        0.008505
      1104         -0.88749830        0.008505
      1105         -0.88749840        0.008505
      1106         -0.88750087        0.008505
      1107         -0.88751017        0.008505
      1108         -0.88751018        0.007875
      1109         -0.88751198        0.007875
      1110         -0.88751247        0.007875
      1111         -0.88751697        0.007875
      1112         -0.88752294        0.007875
      1113         -0.88752713        0.007875
      1114         -0.88752742        0.007875
      1115         -0.88752870        0.007875
      1116         -0.88753067        0.007875
      1117         -0.88753314        0.007875
      1118         -0.88753713        0.007875
      1119         -0.88753837        0.007875
      1120         -0.88754379        0.007875
      1121         -0.88754914        0.007875
      1122         -0.88755306        0.007875
      1123         -0.88755616        0.007875
      1124         -0.88755659        0.007875
      1125         -0.88755680        0.007875
      1126         -0.88755730        0.007875
      1127         -0.88756009        0.007875
      1128         -0.88756406        0.007875
      1129         -0.88756649        0.007875
      1130         -0.88756816        0.007875
      1131         -0.88757034        0.007875
      1132         -0.88757665        0.007875
      1133         -0.88757758        0.007875
      1134         -0.88758045        0.007875
      1135         -0.88758196        0.007875
      1136         -0.88758404        0.007875
      1137         -0.88758805        0.007875
      1138         -0.88758949        0.007875
      1139         -0.88759414        0.007875
      1140         -0.88759475        0.007875
      1141         -0.88759767        0.007875
      1142         -0.88759986        0.007875
      1143         -0.88760386        0.007875
      1144         -0.88760422        0.007875
      1145         -0.88761124        0.007875
      1146         -0.88761337        0.007875
      1147         -0.88761633        0.007875
      1148         -0.88761749        0.007875
      1149         -0.88762235        0.007875
      1150         -0.88762526        0.007875
      1151         -0.88762687        0.007875
      1152         -0.88762992        0.007875
      1153         -0.88763114        0.007875
      1154         -0.88763538        0.007875
      1155         -0.88763708        0.007875
      1156         -0.88763709        0.007875
      1157         -0.88763854        0.007875
      1158         -0.88763862        0.007875
      1159         -0.88763892        0.007875
      1160         -0.88764332        0.007875
      1161         -0.88764348        0.007875
      1162         -0.88764475        0.007875
      1163         -0.88764529        0.007875
      1164         -0.88764825        0.007875
      1165         -0.88765308        0.007875
      1166         -0.88765582        0.007875
      1167         -0.88765752        0.007875
      1168         -0.88766117        0.007875
      1169         -0.88766263        0.007875
      1170         -0.88766452        0.007875
      1171         -0.88766606        0.007875
      1172         -0.88767205        0.007875
      1173         -0.88767522        0.007875
      1174         -0.88767705        0.007875
      1175         -0.88768185        0.007875
      1176         -0.88768380        0.007875
      1177         -0.88768451        0.007875
      1178         -0.88768502        0.007875
      1179         -0.88768529        0.007875
      1180         -0.88768892        0.007875
      1181         -0.88769857        0.007875
      1182         -0.88769941        0.007875
      1183         -0.88770216        0.007875
      1184         -0.88770551        0.007875
      1185         -0.88770826        0.007875
      1186         -0.88771007        0.007875
      1187         -0.88771635        0.007875
      1188         -0.88771858        0.007875
      1189         -0.88772132        0.007875
      1190         -0.88772248        0.007875
      1191         -0.88772392        0.007875
      1192         -0.88772711        0.007875
      1193         -0.88772716        0.007875
      1194         -0.88772770        0.007875
      1195         -0.88772940        0.007875
      1196         -0.88773052        0.007875
      1197         -0.88773539        0.007875
      1198         -0.88773769        0.007875
      1199         -0.88774167        0.007875
      1200         -0.88774418        0.007875
      1201         -0.88774702        0.007875
      1202         -0.88774786        0.007875
      1203         -0.88775902        0.007875
      1204         -0.88776302        0.007875
      1205         -0.88776481        0.007875
      1206         -0.88776579        0.007875
      1207         -0.88776615        0.007875
      1208         -0.88777274        0.007875
      1209         -0.88777984        0.007875
      1210         -0.88778830        0.007875
      1211         -0.88779160        0.007875
      1212         -0.88779273        0.007875
      1213         -0.88779652        0.007875
      1214         -0.88779989        0.007875
      1215         -0.88780230        0.007875
      1216         -0.88780746        0.007875
      1217         -0.88780850        0.007875
      1218         -0.88781037        0.007875
      1219         -0.88781369        0.007875
      1220         -0.88782220        0.007875
      1221         -0.88782718        0.007875
      1222         -0.88782927        0.007875
      1223         -0.88783641        0.007875
      1224         -0.88783878        0.007875
      1225         -0.88784415        0.007875
      1226         -0.88784738        0.007875
      1227         -0.88784791        0.007875
      1228         -0.88784848        0.007875
      1229         -0.88785447        0.007875
      1230         -0.88785490        0.007875
      1231         -0.88785597        0.007875
      1232         -0.88785971        0.007875
      1233         -0.88786300        0.007875
      1234         -0.88787087        0.007875
      1235         -0.88787805        0.007875
      1236         -0.88787915        0.007875
      1237         -0.88787941        0.007875
      1238         -0.88787984        0.007875
      1239         -0.88788142        0.007875
      1240         -0.88788280        0.007875
      1241         -0.88788840        0.007875
      1242         -0.88789265        0.007875
      1243         -0.88789365        0.007875
      1244         -0.88789664        0.007875
      1245         -0.88789854        0.007875
      1246         -0.88790770        0.007875
      1247         -0.88790946        0.007875
      1248         -0.88791296        0.007875
      1249         -0.88791731        0.007875
      1250         -0.88791917        0.007875
      1251         -0.88791933        0.007875
      1252         -0.88792648        0.007875
      1253         -0.88793068        0.007875
      1254         -0.88793255        0.007875
      1255         -0.88793322        0.007875
      1256         -0.88793412        0.007875
      1257         -0.88793445        0.007875
      1258         -0.88793655        0.007875
      1259         -0.88793763        0.007875
      1260         -0.88794255        0.007875
      1261         -0.88794346        0.007875
      1262         -0.88795386        0.007875
      1263         -0.88795760        0.007875
      1264         -0.88795892        0.007875
      1265         -0.88795936        0.007875
      1266         -0.88795959        0.007875
      1267         -0.88796525        0.007875
      1268         -0.88796576        0.007875
      1269         -0.88796647        0.007875
      1270         -0.88797118        0.007875
      1271         -0.88797125        0.007875
      1272         -0.88797659        0.007875
      1273         -0.88797739        0.007875
      1274         -0.88798325        0.007875
      1275         -0.88799345        0.007875
      1276         -0.88800274        0.007875
      1277         -0.88800814        0.007875
      1278         -0.88800908        0.007875
      1279         -0.88801166        0.007875
      1280         -0.88801333        0.007875
      1281         -0.88801659        0.007875
      1282         -0.88802331        0.007875
      1283         -0.88802375        0.007875
      1284         -0.88803147        0.007875
      1285         -0.88803501        0.007875
      1286         -0.88803610        0.007875
      1287         -0.88803697        0.007875
      1288         -0.88804126        0.007875
      1289         -0.88804426        0.007875
      1290         -0.88804816        0.007875
      1291         -0.88805148        0.007875
      1292         -0.88805511        0.007875
      1293         -0.88806365        0.007875
      1294         -0.88806640        0.007875
      1295         -0.88806726        0.007875
      1296         -0.88806857        0.007875
      1297         -0.88807382        0.007875
      1298         -0.88807969        0.007875
      1299         -0.88808153        0.007875
      1300         -0.88808163        0.007875
      1301         -0.88808263        0.007875
      1302         -0.88808762        0.007875
      1303         -0.88809519        0.007875
      1304         -0.88809568        0.007875
      1305         -0.88810133        0.007875
      1306         -0.88810401        0.007875
      1307         -0.88810548        0.007875
      1308         -0.88810713        0.007875
      1309         -0.88810726        0.007875
      1310         -0.88811293        0.007875
      1311         -0.88811681        0.007875
      1312         -0.88811804        0.007875
      1313         -0.88812405        0.007875
      1314         -0.88812491        0.007875
      1315         -0.88812770        0.007875
      1316         -0.88812878        0.007875
      1317         -0.88813175        0.007875
      1318         -0.88813853        0.007875
      1319         -0.88814500        0.007875
      1320         -0.88814546        0.007875
      1321         -0.88814892        0.007875
      1322         -0.88815511        0.007875
      1323         -0.88815935        0.007875
      1324         -0.88816347        0.007875
      1325         -0.88816354        0.007875
      1326         -0.88816896        0.007875
      1327         -0.88816997        0.007875
      1328         -0.88817339        0.007875
      1329         -0.88817447        0.007875
      1330         -0.88817820        0.007875
      1331         -0.88817947        0.007875
      1332         -0.88818055        0.007875
      1333         -0.88818546        0.007875
      1334         -0.88819036        0.007875
      1335         -0.88819117        0.007875
      1336         -0.88819180        0.007875
      1337         -0.88819448        0.007875
      1338         -0.88820540        0.007875
      1339         -0.88820694        0.007875
      1340         -0.88820712        0.007875
      1341         -0.88821290        0.007875
      1342         -0.88821566        0.007875
      1343         -0.88822018        0.007875
      1344         -0.88822239        0.007875
      1345         -0.88822832        0.007875
      1346         -0.88822925        0.007875
      1347         -0.88823316        0.007875
      1348         -0.88823830        0.007875
      1349         -0.88824175        0.007875
      1350         -0.88824605        0.007875
      1351         -0.88825041        0.007875
      1352         -0.88825832        0.007875
      1353         -0.88825872        0.007875
      1354         -0.88826338        0.007875
      1355         -0.88826391        0.007875
      1356         -0.88826494        0.007875
      1357         -0.88826538        0.007875
      1358         -0.88826926        0.007875
      1359         -0.88827020        0.007875
      1360         -0.88827079        0.007875
      1361         -0.88827213        0.007875
      1362         -0.88827407        0.007875
      1363         -0.88828239        0.007875
      1364         -0.88828578        0.007875
      1365         -0.88828637        0.007875
      1366         -0.88828675        0.007875
      1367         -0.88828797        0.007875
      1368         -0.88829243        0.007875
      1369         -0.88829464        0.007875
      1370         -0.88829670        0.007875
      1371         -0.88830032        0.007875
      1372         -0.88830974        0.007875
      1373         -0.88831790        0.007875
      1374         -0.88832766        0.007875
      1375         -0.88833622        0.007875
      1376         -0.88833938        0.007875
      1377         -0.88834243        0.007875
      1378         -0.88834438        0.007875
      1379         -0.88834691        0.007875
      1380         -0.88834822        0.007875
      1381         -0.88834840        0.007875
      1382         -0.88834994        0.007875
      1383         -0.88835254        0.007875
      1384         -0.88835886        0.007875
      1385         -0.88836004        0.007875
      1386         -0.88836917        0.007875
      1387         -0.88836993        0.007875
      1388         -0.88837551        0.007875
      1389         -0.88838497        0.007875
      1390         -0.88838718        0.007875
      1391         -0.88838794        0.007875
      1392         -0.88840351        0.007875
      1393         -0.88840500        0.007875
      1394         -0.88840703        0.007875
      1395         -0.88841139        0.007875
      1396         -0.88841577        0.007875
      1397         -0.88841817        0.007875
      1398         -0.88842399        0.007875
      1399         -0.88843176        0.007875
      1400         -0.88843409        0.007875
      1401         -0.88843811        0.007875
      1402         -0.88844100        0.007875
      1403         -0.88844241        0.007875
      1404         -0.88844418        0.007875
      1405         -0.88844878        0.007875
      1406         -0.88845633        0.007875
      1407         -0.88845730        0.007875
      1408         -0.88845923        0.007875
      1409         -0.88846032        0.007875
      1410         -0.88846413        0.007875
      1411         -0.88847390        0.007875
      1412         -0.88847660        0.007875
      1413         -0.88847885        0.007875
      1414         -0.88848349        0.007875
      1415         -0.88848456        0.007875
      1416         -0.88848804        0.007875
      1417         -0.88848970        0.007875
      1418         -0.88849316        0.007875
      1419         -0.88849502        0.007875
      1420         -0.88850065        0.007875
      1421         -0.88850544        0.007875
      1422         -0.88850848        0.007875
      1423         -0.88850899        0.007875
      1424         -0.88851316        0.007875
      1425         -0.88851613        0.007875
      1426         -0.88851851        0.007875
      1427         -0.88852695        0.007875
      1428         -0.88853352        0.007875
      1429         -0.88854407        0.007875
      1430         -0.88854913        0.007875
      1431         -0.88855002        0.007875
      1432         -0.88855635        0.007875
      1433         -0.88856298        0.007875
      1434         -0.88856360        0.007875
      1435         -0.88856505        0.007875
      1436         -0.88856843        0.007875
      1437         -0.88857144        0.007875
      1438         -0.88857306        0.007875
      1439         -0.88857709        0.007875
      1440         -0.88857854        0.007875
      1441         -0.88858259        0.007875
      1442         -0.88858354        0.007875
      1443         -0.88858824        0.007875
      1444         -0.88859371        0.007875
      1445         -0.88859379        0.007875
      1446         -0.88859438        0.007875
      1447         -0.88860066        0.007875
      1448         -0.88860172        0.007875
      1449         -0.88861118        0.007875
      1450         -0.88861150        0.007875
      1451         -0.88861196        0.007875
      1452         -0.88861447        0.007875
      1453         -0.88861506        0.007875
      1454         -0.88862148        0.007875
      1455         -0.88862420        0.007875
      1456         -0.88862556        0.007875
      1457         -0.88863395        0.007875
      1458         -0.88863556        0.007875
      1459         -0.88864179        0.007875
      1460         -0.88864444        0.007875
      1461         -0.88864649        0.007875
      1462         -0.88864835        0.007875
      1463         -0.88864879        0.007875
      1464         -0.88864885        0.007875
      1465         -0.88865682        0.007875
      1466         -0.88865695        0.007875
      1467         -0.88866097        0.007875
      1468         -0.88866250        0.007875
      1469         -0.88866777        0.007875
      1470         -0.88867065        0.007875
      1471         -0.88867182        0.007875
      1472         -0.88867386        0.007875
      1473         -0.88867630        0.007875
      1474         -0.88867659        0.007875
      1475         -0.88867807        0.007875
      1476         -0.88867888        0.007875
      1477         -0.88868074        0.007875
      1478         -0.88868655        0.007875
      1479         -0.88868665        0.007875
      1480         -0.88868776        0.007875
      1481         -0.88868920        0.007875
      1482         -0.88868964        0.007875
      1483         -0.88869327        0.007875
      1484         -0.88870434        0.007875
      1485         -0.88870712        0.007875
      1486         -0.88871422        0.007875
      1487         -0.88871615        0.007875
      1488         -0.88871735        0.007875
      1489         -0.88871771        0.007875
      1490         -0.88873198        0.007875
      1491         -0.88873427        0.007875
      1492         -0.88873738        0.007875
      1493         -0.88874227        0.007875
      1494         -0.88874598        0.007875
      1495         -0.88875237        0.007875
      1496         -0.88875760        0.007875
      1497         -0.88876434        0.007875
      1498         -0.88876773        0.007875
      1499         -0.88878011        0.007875
      1500         -0.88878496        0.007875
      1501         -0.88878735        0.007875
      1502         -0.88878781        0.007875
      1503         -0.88879313        0.007875
      1504         -0.88879325        0.007875
      1505         -0.88879614        0.007875
      1506         -0.88879657        0.007875
      1507         -0.88879910        0.007875
      1508         -0.88879936        0.007875
      1509         -0.88880177        0.007875
      1510         -0.88880380        0.007875
      1511         -0.88880873        0.007875
      1512         -0.88881942        0.007875
      1513         -0.88883059        0.007875
      1514         -0.88883149        0.007875
      1515         -0.88883349        0.007875
      1516         -0.88883671        0.007875
      1517         -0.88883749        0.007875
      1518         -0.88883896        0.007875
      1519         -0.88883949        0.007875
      1520         -0.88884236        0.007875
      1521         -0.88884239        0.007875
      1522         -0.88884836        0.007875
      1523         -0.88885019        0.007875
      1524         -0.88885253        0.007875
      1525         -0.88885260        0.007875
      1526         -0.88886155        0.007875
      1527         -0.88886397        0.007875
      1528         -0.88887158        0.007875
      1529         -0.88887998        0.007875
      1530         -0.88888014        0.007875
      1531         -0.88888814        0.007875
      1532         -0.88888916        0.007875
      1533         -0.88889372        0.007875
      1534         -0.88889493        0.007875
      1535         -0.88890019        0.007875
      1536         -0.88890137        0.007875
      1537         -0.88890666        0.007875
      1538         -0.88891122        0.007875
      1539         -0.88891610        0.007875
      1540         -0.88891631        0.007875
      1541         -0.88892131        0.007875
      1542         -0.88892430        0.007875
      1543         -0.88893112        0.007875
      1544         -0.88893414        0.007875
      1545         -0.88893608        0.007875
      1546         -0.88893675        0.007875
      1547         -0.88894773        0.007875
      1548         -0.88894990        0.007875
      1549         -0.88895601        0.007875
      1550         -0.88895920        0.007875
      1551         -0.88896088        0.007875
[...]
   3      -0.00000    -0.00000     0.00000     0.00000
   4      -0.00000     0.00000     0.00000     0.00000
   5      -0.00000    -0.00000     0.00000     0.00000
   6       0.00000    -0.00000     0.00000     0.00000
   7      -0.00000     0.00000     0.00000     0.00000
   8      -0.00000     0.00000     0.00000     0.00000
   9       0.00000     0.00000     0.00000     0.00000
  10      -0.00000     0.00000     0.00000     0.00000

                  WFN1 Final alpha Correlation Function Analysis
                  ----------------------------------------------


 global array: Ca[1:10,1:10],  handle: -981 

                     1                       2                       3                       4                       5                       6  
       ----------------------- ----------------------- ----------------------- ----------------------- ----------------------- -----------------------
   1      -0.80938,   -0.35411     0.42667,    0.15432     0.03946,    0.01973    -0.00738,   -0.07521    -0.02806,    0.01261     0.05159,   -0.00761
   2      -0.41146,   -0.19538    -0.82383,   -0.32759     0.01756,    0.00226     0.00980,    0.01022    -0.00314,   -0.00120    -0.01343,   -0.00029
   3       0.06020,   -0.01069    -0.02168,    0.01469     0.81843,    0.27653    -0.45102,   -0.17745     0.03786,   -0.02585    -0.00336,   -0.02644
   4      -0.03978,    0.03077     0.03287,   -0.00318     0.34154,    0.34918     0.57735,    0.64358     0.05173,   -0.04996     0.00295,   -0.02978
   5      -0.02750,   -0.01495    -0.01101,    0.00561    -0.04675,    0.01315    -0.04326,    0.01163    -0.31173,   -0.33045    -0.30551,   -0.29700
   6       0.03105,   -0.00121    -0.00801,    0.00414    -0.04443,    0.01028    -0.00137,    0.00034     0.09080,   -0.36778     0.14238,   -0.38994
   7      -0.02611,   -0.01804    -0.02568,    0.01690    -0.02214,   -0.03909     0.01395,   -0.02199     0.38086,   -0.03938     0.36865,   -0.06385
   8      -0.03026,   -0.00481    -0.03103,    0.02210     0.00881,    0.02179    -0.05008,   -0.05192     0.44657,    0.06150    -0.41156,   -0.06115
   9      -0.02461,    0.01877     0.00891,   -0.03718    -0.02277,    0.06741    -0.02658,   -0.05123    -0.07220,   -0.37603     0.07204,    0.45528
  10       0.02813,    0.01163    -0.02905,    0.03755     0.01432,    0.02430    -0.01854,   -0.00971    -0.33284,    0.18622     0.28079,   -0.19291

                     7                       8                       9                      10  
       ----------------------- ----------------------- ----------------------- -----------------------
   1       0.00903,   -0.00123     0.01517,    0.01477    -0.01242,    0.00664    -0.02866,    0.02798
   2       0.04584,    0.05272     0.00124,   -0.01013    -0.02342,    0.00171     0.01059,    0.01239
   3       0.01569,   -0.02846    -0.01699,    0.03351    -0.06418,    0.00625     0.06847,   -0.01568
   4      -0.03341,   -0.02409     0.01904,   -0.02678     0.00395,    0.00097    -0.01821,   -0.03308
   5      -0.34122,   -0.34959    -0.39927,   -0.36005    -0.21495,   -0.18004     0.01312,    0.00937
   6       0.03425,    0.04928    -0.07760,    0.28975    -0.19712,    0.60264    -0.18076,    0.39085
   7      -0.53040,    0.04735    -0.25373,    0.03129     0.26523,    0.03284     0.53644,   -0.02550
   8      -0.46633,   -0.03613     0.22067,    0.01216     0.26587,    0.01300    -0.52635,   -0.00431
   9      -0.03450,   -0.04314    -0.00236,   -0.30069     0.12551,    0.52997    -0.09926,   -0.47975
  10      -0.41916,    0.26260     0.55117,   -0.33092    -0.25420,    0.10445    -0.00149,    0.02398

                   WFN1 Final beta Correlation Function Analysis
                   ---------------------------------------------


 global array: Cb[1:10,1:10],  handle: -980 

                     1                       2                       3                       4                       5                       6  
       ----------------------- ----------------------- ----------------------- ----------------------- ----------------------- -----------------------
   1      -0.80938,   -0.35411     0.42667,    0.15432     0.03946,    0.01973    -0.00738,   -0.07521    -0.02806,    0.01261     0.05159,   -0.00761
   2      -0.41146,   -0.19538    -0.82383,   -0.32759     0.01756,    0.00226     0.00980,    0.01022    -0.00314,   -0.00120    -0.01343,   -0.00029
   3       0.06020,   -0.01069    -0.02168,    0.01469     0.81843,    0.27653    -0.45102,   -0.17745     0.03786,   -0.02585    -0.00336,   -0.02644
   4      -0.03978,    0.03077     0.03287,   -0.00318     0.34154,    0.34918     0.57735,    0.64358     0.05173,   -0.04996     0.00295,   -0.02978
   5      -0.02750,   -0.01495    -0.01101,    0.00561    -0.04675,    0.01315    -0.04326,    0.01163    -0.31173,   -0.33045    -0.30551,   -0.29700
   6       0.03105,   -0.00121    -0.00801,    0.00414    -0.04443,    0.01028    -0.00137,    0.00034     0.09080,   -0.36778     0.14238,   -0.38994
   7      -0.02611,   -0.01804    -0.02568,    0.01690    -0.02214,   -0.03909     0.01395,   -0.02199     0.38086,   -0.03938     0.36865,   -0.06385
   8      -0.03026,   -0.00481    -0.03103,    0.02210     0.00881,    0.02179    -0.05008,   -0.05192     0.44657,    0.06150    -0.41156,   -0.06115
   9      -0.02461,    0.01877     0.00891,   -0.03718    -0.02277,    0.06741    -0.02658,   -0.05123    -0.07220,   -0.37603     0.07204,    0.45528
  10       0.02813,    0.01163    -0.02905,    0.03755     0.01432,    0.02430    -0.01854,   -0.00971    -0.33284,    0.18622     0.28079,   -0.19291

                     7                       8                       9                      10  
       ----------------------- ----------------------- ----------------------- -----------------------
   1       0.00903,   -0.00123     0.01517,    0.01477    -0.01242,    0.00664    -0.02866,    0.02798
   2       0.04584,    0.05272     0.00124,   -0.01013    -0.02342,    0.00171     0.01059,    0.01239
   3       0.01569,   -0.02846    -0.01699,    0.03351    -0.06418,    0.00625     0.06847,   -0.01568
   4      -0.03341,   -0.02409     0.01904,   -0.02678     0.00395,    0.00097    -0.01821,   -0.03308
   5      -0.34122,   -0.34959    -0.39927,   -0.36005    -0.21495,   -0.18004     0.01312,    0.00937
   6       0.03425,    0.04928    -0.07760,    0.28975    -0.19712,    0.60264    -0.18076,    0.39085
   7      -0.53040,    0.04735    -0.25373,    0.03129     0.26523,    0.03284     0.53644,   -0.02550
   8      -0.46633,   -0.03613     0.22067,    0.01216     0.26587,    0.01300    -0.52635,   -0.00431
   9      -0.03450,   -0.04314    -0.00236,   -0.30069     0.12551,    0.52997    -0.09926,   -0.47975
  10      -0.41916,    0.26260     0.55117,   -0.33092    -0.25420,    0.10445    -0.00149,    0.02398

                     WFN1 Final Alpha Natural Orbital Analysis
                     -----------------------------------------

 Vector    1  Occ=7.804827D-01  E= 0.000000D+00
              MO Center= -1.7D-06, -3.0D-06,  1.7D-05, r^2= 2.3D+00
   Bfn.  Coefficient  Atom+Function         Bfn.  Coefficient  Atom+Function  
  ----- ------------  ---------------      ----- ------------  ---------------
     2     -0.502290  1 H  s                  7     -0.502295  2 H  s          
     1     -0.222235  1 H  s                  6     -0.222242  2 H  s          

 Vector    2  Occ=2.074754D-01  E= 0.000000D+00
              MO Center=  7.6D-06,  1.3D-05, -2.4D-05, r^2= 2.5D+00
   Bfn.  Coefficient  Atom+Function         Bfn.  Coefficient  Atom+Function  
  ----- ------------  ---------------      ----- ------------  ---------------
     2      0.531510  1 H  s                  7     -0.531519  2 H  s          
     1      0.281767  1 H  s                  6     -0.281744  2 H  s          

 Vector    3  Occ=3.737994D-03  E= 0.000000D+00
              MO Center= -6.3D-04,  6.8D-04,  6.7D-04, r^2= 2.4D+00
   Bfn.  Coefficient  Atom+Function         Bfn.  Coefficient  Atom+Function  
  ----- ------------  ---------------      ----- ------------  ---------------
     1      0.893856  1 H  s                  6      0.893953  2 H  s          
     2     -0.687441  1 H  s                  7     -0.687581  2 H  s          
    10      0.030251  2 H  pz                 5     -0.028108  1 H  pz         

 Vector    4  Occ=2.529135D-03  E= 0.000000D+00
              MO Center= -6.1D-04,  4.2D-04, -2.8D-04, r^2= 3.1D+00
   Bfn.  Coefficient  Atom+Function         Bfn.  Coefficient  Atom+Function  
  ----- ------------  ---------------      ----- ------------  ---------------
     1     -0.923119  1 H  s                  6      0.923051  2 H  s          
     2      0.915474  1 H  s                  7     -0.915347  2 H  s          
     5     -0.032833  1 H  pz                10     -0.030148  2 H  pz         

 Vector    5  Occ=9.800583D-04  E= 0.000000D+00
              MO Center=  6.0D-04, -6.7D-04, -2.1D-04, r^2= 1.9D+00
   Bfn.  Coefficient  Atom+Function         Bfn.  Coefficient  Atom+Function  
  ----- ------------  ---------------      ----- ------------  ---------------
     4     -0.559335  1 H  py                 8      0.502669  2 H  px         
     9     -0.497015  2 H  py                 3      0.432545  1 H  px         

 Vector    6  Occ=9.653932D-04  E= 0.000000D+00
              MO Center= -1.4D-05, -1.2D-06, -5.7D-05, r^2= 1.9D+00
   Bfn.  Coefficient  Atom+Function         Bfn.  Coefficient  Atom+Function  
  ----- ------------  ---------------      ----- ------------  ---------------
     8     -0.539702  2 H  px                 3     -0.518892  1 H  px         
     4     -0.479981  1 H  py                 9     -0.456828  2 H  py         

 Vector    7  Occ=1.006874D-03  E= 0.000000D+00
              MO Center=  1.8D-04,  1.2D-04,  8.6D-05, r^2= 1.9D+00
   Bfn.  Coefficient  Atom+Function         Bfn.  Coefficient  Atom+Function  
  ----- ------------  ---------------      ----- ------------  ---------------
     3     -0.559237  1 H  px                 9      0.502744  2 H  py         
     8      0.497235  2 H  px                 4     -0.432125  1 H  py         

 Vector    8  Occ=9.384928D-04  E= 0.000000D+00
              MO Center=  4.8D-04, -5.3D-04,  1.7D-04, r^2= 1.9D+00
   Bfn.  Coefficient  Atom+Function         Bfn.  Coefficient  Atom+Function  
  ----- ------------  ---------------      ----- ------------  ---------------
     9      0.539678  2 H  py                 4     -0.518593  1 H  py         
     3      0.480336  1 H  px                 8     -0.456886  2 H  px         

 Vector    9  Occ=9.575530D-04  E= 0.000000D+00
              MO Center=  1.7D-05,  1.2D-05, -5.9D-04, r^2= 1.9D+00
   Bfn.  Coefficient  Atom+Function         Bfn.  Coefficient  Atom+Function  
  ----- ------------  ---------------      ----- ------------  ---------------
     5      0.706752  1 H  pz                10     -0.706501  2 H  pz         
     7     -0.065803  2 H  s                  2     -0.062340  1 H  s          
     6      0.058743  2 H  s                  1      0.055270  1 H  s          

 Vector   10  Occ=9.263556D-04  E= 0.000000D+00
              MO Center= -2.1D-05, -4.6D-05,  2.2D-04, r^2= 1.9D+00
   Bfn.  Coefficient  Atom+Function         Bfn.  Coefficient  Atom+Function  
  ----- ------------  ---------------      ----- ------------  ---------------
     5     -0.706506  1 H  pz                10     -0.707431  2 H  pz         
     2     -0.092254  1 H  s                  7      0.090171  2 H  s          
     1      0.072276  1 H  s                  6     -0.069604  2 H  s          


                     WFN1 Final Beta Natural Orbital Analysis
                     ----------------------------------------

 Vector    1  Occ=7.804827D-01  E= 0.000000D+00
              MO Center= -1.7D-06, -3.0D-06,  1.7D-05, r^2= 2.3D+00
   Bfn.  Coefficient  Atom+Function         Bfn.  Coefficient  Atom+Function  
  ----- ------------  ---------------      ----- ------------  ---------------
     2     -0.502290  1 H  s                  7     -0.502295  2 H  s          
     1     -0.222235  1 H  s                  6     -0.222242  2 H  s          

 Vector    2  Occ=2.074754D-01  E= 0.000000D+00
              MO Center=  7.6D-06,  1.3D-05, -2.4D-05, r^2= 2.5D+00
   Bfn.  Coefficient  Atom+Function         Bfn.  Coefficient  Atom+Function  
  ----- ------------  ---------------      ----- ------------  ---------------
     2      0.531510  1 H  s                  7     -0.531519  2 H  s          
     1      0.281767  1 H  s                  6     -0.281744  2 H  s          

 Vector    3  Occ=3.737994D-03  E= 0.000000D+00
              MO Center= -6.3D-04,  6.8D-04,  6.7D-04, r^2= 2.4D+00
   Bfn.  Coefficient  Atom+Function         Bfn.  Coefficient  Atom+Function  
  ----- ------------  ---------------      ----- ------------  ---------------
     1      0.893856  1 H  s                  6      0.893953  2 H  s          
     2     -0.687441  1 H  s                  7     -0.687581  2 H  s          
    10      0.030251  2 H  pz                 5     -0.028108  1 H  pz         

 Vector    4  Occ=2.529135D-03  E= 0.000000D+00
              MO Center= -6.1D-04,  4.2D-04, -2.8D-04, r^2= 3.1D+00
   Bfn.  Coefficient  Atom+Function         Bfn.  Coefficient  Atom+Function  
  ----- ------------  ---------------      ----- ------------  ---------------
     1     -0.923119  1 H  s                  6      0.923051  2 H  s          
     2      0.915474  1 H  s                  7     -0.915347  2 H  s          
     5     -0.032833  1 H  pz                10     -0.030148  2 H  pz         

 Vector    5  Occ=9.800583D-04  E= 0.000000D+00
              MO Center=  6.0D-04, -6.7D-04, -2.1D-04, r^2= 1.9D+00
   Bfn.  Coefficient  Atom+Function         Bfn.  Coefficient  Atom+Function  
  ----- ------------  ---------------      ----- ------------  ---------------
     4     -0.559335  1 H  py                 8      0.502669  2 H  px         
     9     -0.497015  2 H  py                 3      0.432545  1 H  px         

 Vector    6  Occ=9.653932D-04  E= 0.000000D+00
              MO Center= -1.4D-05, -1.2D-06, -5.7D-05, r^2= 1.9D+00
   Bfn.  Coefficient  Atom+Function         Bfn.  Coefficient  Atom+Function  
  ----- ------------  ---------------      ----- ------------  ---------------
     8     -0.539702  2 H  px                 3     -0.518892  1 H  px         
     4     -0.479981  1 H  py                 9     -0.456828  2 H  py         

 Vector    7  Occ=1.006874D-03  E= 0.000000D+00
              MO Center=  1.8D-04,  1.2D-04,  8.6D-05, r^2= 1.9D+00
   Bfn.  Coefficient  Atom+Function         Bfn.  Coefficient  Atom+Function  
  ----- ------------  ---------------      ----- ------------  ---------------
     3     -0.559237  1 H  px                 9      0.502744  2 H  py         
     8      0.497235  2 H  px                 4     -0.432125  1 H  py         

 Vector    8  Occ=9.384928D-04  E= 0.000000D+00
              MO Center=  4.8D-04, -5.3D-04,  1.7D-04, r^2= 1.9D+00
   Bfn.  Coefficient  Atom+Function         Bfn.  Coefficient  Atom+Function  
  ----- ------------  ---------------      ----- ------------  ---------------
     9      0.539678  2 H  py                 4     -0.518593  1 H  py         
     3      0.480336  1 H  px                 8     -0.456886  2 H  px         

 Vector    9  Occ=9.575530D-04  E= 0.000000D+00
              MO Center=  1.7D-05,  1.2D-05, -5.9D-04, r^2= 1.9D+00
   Bfn.  Coefficient  Atom+Function         Bfn.  Coefficient  Atom+Function  
  ----- ------------  ---------------      ----- ------------  ---------------
     5      0.706752  1 H  pz                10     -0.706501  2 H  pz         
     7     -0.065803  2 H  s                  2     -0.062340  1 H  s          
     6      0.058743  2 H  s                  1      0.055270  1 H  s          

 Vector   10  Occ=9.263556D-04  E= 0.000000D+00
              MO Center= -2.1D-05, -4.6D-05,  2.2D-04, r^2= 1.9D+00
   Bfn.  Coefficient  Atom+Function         Bfn.  Coefficient  Atom+Function  
  ----- ------------  ---------------      ----- ------------  ---------------
     5     -0.706506  1 H  pz                10     -0.707431  2 H  pz         
     2     -0.092254  1 H  s                  7      0.090171  2 H  s          
     1      0.072276  1 H  s                  6     -0.069604  2 H  s          


 Task  times  cpu:     3877.5s     wall:     4814.6s
 Summary of allocated global arrays
-----------------------------------
  No active global arrays



                         GA Statistics for process    0
                         ------------------------------

       create   destroy   get      put      acc     scatter   gather  read&inc
calls:   44       44     1.07e+09 4.61e+05 6.13e+05    0        0       11     
number of processes/call 1.00e+00 1.00e+00 1.00e+00 0.00e+00 0.00e+00
bytes total:             8.60e+11 4.90e+08 6.12e+08 0.00e+00 0.00e+00 8.80e+01
bytes remote:            0.00e+00 0.00e+00 0.00e+00 0.00e+00 0.00e+00 0.00e+00
Max memory consumed for GA by this process: 268000 bytes
MA_summarize_allocated_blocks: starting scan ...
MA_summarize_allocated_blocks: scan completed: 0 heap blocks, 0 stack blocks
MA usage statistics:

	allocation statistics:
					      heap	     stack
					      ----	     -----
	current number of blocks	         0	         0
	maximum number of blocks	        19	        17
	current total bytes		         0	         0
	maximum total bytes		   3205432	  22508664
	maximum total K-bytes		      3206	     22509
	maximum total M-bytes		         4	        23


                                NWChem Input Module
                                -------------------





                                     CITATION
                                     --------
                Please cite the following reference when publishing
                           results obtained with NWChem:

                 M. Valiev, E.J. Bylaska, N. Govind, K. Kowalski,
              T.P. Straatsma, H.J.J. van Dam, D. Wang, J. Nieplocha,
                        E. Apra, T.L. Windus, W.A. de Jong
                 "NWChem: a comprehensive and scalable open-source
                  solution for large scale molecular simulations"
                      Comput. Phys. Commun. 181, 1477 (2010)
                           doi:10.1016/j.cpc.2010.04.018

                                      AUTHORS
                                      -------
          E. Apra, E. J. Bylaska, W. A. de Jong, N. Govind, K. Kowalski,
       T. P. Straatsma, M. Valiev, H. J. J. van Dam, D. Wang, T. L. Windus,
        J. Hammond, J. Autschbach, K. Bhaskaran-Nair, J. Brabec, K. Lopata,
    S. A. Fischer, S. Krishnamoorthy, M. Jacquelin, W. Ma, M. Klemm, O. Villa,
      Y. Chen, V. Anisimov, F. Aquino, S. Hirata, M. T. Hackler, V. Konjkov,
      T. Risthaus, M. Malagoli, A. Marenich, A. Otero-de-la-Roza, J. Mullin,
        P. Nichols, R. Peverati, J. Pittner, Y. Zhao, P.-D. Fan, A. Fonari,
       M. Williamson, R. J. Harrison, J. R. Rehr, M. Dupuis, D. Silverstein,
    D. M. A. Smith, J. Nieplocha, V. Tipparaju, M. Krishnan, B. E. Van Kuiken,
        A. Vazquez-Mayagoitia, L. Jensen, M. Swart, Q. Wu, T. Van Voorhis,
     A. A. Auer, M. Nooijen, L. D. Crosby, E. Brown, G. Cisneros, G. I. Fann,
   H. Fruchtl, J. Garza, K. Hirao, R. A. Kendall, J. A. Nichols, K. Tsemekhman,
    K. Wolinski, J. Anchell, D. E. Bernholdt, P. Borowski, T. Clark, D. Clerc,
   H. Dachsel, M. J. O. Deegan, K. Dyall, D. Elwood, E. Glendening, M. Gutowski,
   A. C. Hess, J. Jaffe, B. G. Johnson, J. Ju, R. Kobayashi, R. Kutteh, Z. Lin,
   R. Littlefield, X. Long, B. Meng, T. Nakajima, S. Niu, L. Pollack, M. Rosing,
   K. Glaesemann, G. Sandrone, M. Stave, H. Taylor, G. Thomas, J. H. van Lenthe,
                               A. T. Wong, Z. Zhang.

 Total times  cpu:     3877.5s     wall:     4814.6s
