 argument  1 = input-wf.nw



============================== echo of input deck ==============================
echo
start wfn1_dat
geometry units au noautoz
  H 0 0 -1.89434600000000000000
  H 0 0  1.89434600000000000000
  symmetry cs
end
basis
  H library 6-31g**
end
set wfn1:input_vectors "atomic"
set wfn1:solver "monte-carlo"
set wfn1:print_error F
set wfn1:t_initial 0.1
#set wfn1:corr_expr "wfn1_mx"
set wfn1:corr_expr "wfn1c"
set wfn1:t_bath 0.0
set wfn1:maxit  20000
task wfn1 energy
================================================================================


                                         
                                         


              Northwest Computational Chemistry Package (NWChem) 6.8
              ------------------------------------------------------


                    Environmental Molecular Sciences Laboratory
                       Pacific Northwest National Laboratory
                                Richland, WA 99352

                              Copyright (c) 1994-2015
                       Pacific Northwest National Laboratory
                            Battelle Memorial Institute

             NWChem is an open-source computational chemistry package
                        distributed under the terms of the
                      Educational Community License (ECL) 2.0
             A copy of the license is included with this distribution
                              in the LICENSE.TXT file

                                  ACKNOWLEDGMENT
                                  --------------

            This software and its documentation were developed at the
            EMSL at Pacific Northwest National Laboratory, a multiprogram
            national laboratory, operated for the U.S. Department of Energy
            by Battelle under Contract Number DE-AC05-76RL01830. Support
            for this work was provided by the Department of Energy Office
            of Biological and Environmental Research, Office of Basic
            Energy Sciences, and the Office of Advanced Scientific Computing.


           Job information
           ---------------

    hostname        = erato
    program         = ../../../bin/LINUX64/nwchem
    date            = Mon Mar  1 19:39:39 2021

    compiled        = Sun_Feb_28_18:02:42_2021
    source          = /home/hvandam/nwchem-1-wfn1
    nwchem branch   = Development
    nwchem revision = nwchem_on_git-124-gad72d19fff205e319ffbbf2bca37a04ded6ad57b
    ga revision     = nwchem_on_git-124-gad72d19
    use scalapack   = F
    input           = input-wf.nw
    prefix          = wfn1_dat.
    data base       = ./wfn1_dat.db
    status          = startup
    nproc           =        1
    time left       =     -1s



           Memory information
           ------------------

    heap     =   13107198 doubles =    100.0 Mbytes
    stack    =   13107195 doubles =    100.0 Mbytes
    global   =   26214400 doubles =    200.0 Mbytes (distinct from heap & stack)
    total    =   52428793 doubles =    400.0 Mbytes
    verify   = yes
    hardfail = no 


           Directory information
           ---------------------

  0 permanent = .
  0 scratch   = .




                                NWChem Input Module
                                -------------------


 Turning off AUTOSYM since
 SYMMETRY directive was detected!



                             Geometry "geometry" -> ""
                             -------------------------

 Output coordinates in a.u. (scale by  1.000000000 to convert to a.u.)

  No.       Tag          Charge          X              Y              Z
 ---- ---------------- ---------- -------------- -------------- --------------
    1 H                    1.0000     0.00000000     0.00000000    -1.89434600
    2 H                    1.0000     0.00000000     0.00000000     1.89434600

      Atomic Mass 
      ----------- 

      H                  1.007825


 Effective nuclear repulsion energy (a.u.)       0.2639433345

            Nuclear Dipole moment (a.u.) 
            ----------------------------
        X                 Y               Z
 ---------------- ---------------- ----------------
     0.0000000000     0.0000000000     0.0000000000

      Symmetry information
      --------------------

 Group name             Cs        
 Group number              2
 Group order               2
 No. of unique centers     1

      Symmetry unique atoms

     1


            XYZ format geometry
            -------------------
     2
 geometry
 H                     0.00000000     0.00000000    -1.00244480
 H                     0.00000000     0.00000000     1.00244480

                      Basis "ao basis" -> "" (cartesian)
                      -----
  H (Hydrogen)
  ------------
            Exponent  Coefficients 
       -------------- ---------------------------------------------------------
  1 S  1.87311370E+01  0.033495
  1 S  2.82539370E+00  0.234727
  1 S  6.40121700E-01  0.813757

  2 S  1.61277800E-01  1.000000

  3 P  1.10000000E+00  1.000000



 Summary of "ao basis" -> "" (cartesian)
 ------------------------------------------------------------------------------
       Tag                 Description            Shells   Functions and Types
 ---------------- ------------------------------  ------  ---------------------
 H                          6-31g**                  3        5   2s1p



                                NWChem WFN1 Module
                                ------------------



          No. of electrons :     2
           Alpha electrons :     1
            Beta electrons :     1
          Charge           :     0
          Spin multiplicity:     1

 HvD: wfn1_inpdft
 HvD: nquad_task =                     1
 HvD: iangquad   =                     0
 HvD: gridtype   = user      
 HvD: leb        =  T
 HvD: radgrid    = murakn    
 HvD: trunc_neigh=  T
 HvD: lssw       =  T
 HvD: whichssw   = erf1    
 HvD: mxnrad     =                     0
 HvD: mxnang     =                     0
 HVD: wfn1: movecs_in  = atomic                                                                                                                                                                                                                                                          
 HVD: wfn1: movecs_out = ./wfn1_dat.movecs                                                                                                                                                                                                                                               

      Superposition of Atomic Density Guess
      -------------------------------------

 Sum of atomic energies:          -0.99646508

      Non-variational initial energy
      ------------------------------

 Total energy =      -0.693638
 1-e energy   =      -1.523805
 2-e energy   =       0.566223
 HOMO         =      -0.267022
 LUMO         =      -0.106912

 iteration              energy           error
 ---------              ------           -----
         0         -0.90443776        0.200000
         1         -0.90994146        0.200000
         2         -0.91079862        0.200000
         3         -0.91496968        0.200000
         4         -0.91531089        0.200000
         5         -0.91707488        0.200000
         6         -0.91727379        0.200000
         7         -0.91820376        0.200000
         8         -0.92056125        0.200000
         9         -0.92149880        0.200000
        10         -0.92155371        0.200000
        11         -0.92156940        0.200000
        12         -0.92251783        0.185175
        13         -0.92489995        0.185175
        14         -0.92492919        0.171449
        15         -0.92513503        0.171449
        16         -0.92534015        0.146973
        17         -0.92538148        0.146973
        18         -0.92548814        0.146973
        19         -0.92551996        0.146973
        20         -0.92555329        0.146973
        21         -0.92628471        0.146973
        22         -0.92658990        0.146973
        23         -0.92666318        0.146973
        24         -0.92688377        0.136079
        25         -0.92694734        0.136079
        26         -0.92725294        0.136079
        27         -0.92741388        0.136079
        28         -0.92751695        0.136079
        29         -0.92753766        0.125992
        30         -0.92760619        0.125992
        31         -0.92778521        0.116653
        32         -0.92783507        0.116653
        33         -0.92786180        0.116653
        34         -0.92791566        0.116653
        35         -0.92799006        0.116653
        36         -0.92824990        0.116653
        37         -0.92853618        0.116653
        38         -0.92919446        0.116653
        39         -0.92920367        0.116653
        40         -0.92943887        0.116653
        41         -0.92964595        0.116653
        42         -0.92987149        0.108006
        43         -0.92997171        0.100000
        44         -0.92999738        0.079370
        45         -0.93001009        0.079370
        46         -0.93014577        0.068040
        47         -0.93015633        0.068040
        48         -0.93016907        0.062996
        49         -0.93033584        0.062996
        50         -0.93039736        0.062996
        51         -0.93042956        0.062996
        52         -0.93046419        0.062996
        53         -0.93050635        0.062996
        54         -0.93065087        0.062996
        55         -0.93070409        0.058326
        56         -0.93070477        0.058326
        57         -0.93079942        0.054003
        58         -0.93080283        0.054003
        59         -0.93083486        0.054003
        60         -0.93083569        0.054003
        61         -0.93092430        0.054003
        62         -0.93096099        0.054003
        63         -0.93106705        0.050000
        64         -0.93106952        0.050000
        65         -0.93107050        0.046294
        66         -0.93111386        0.046294
        67         -0.93112980        0.046294
        68         -0.93113403        0.046294
        69         -0.93113922        0.046294
        70         -0.93114434        0.046294
        71         -0.93116709        0.042862
        72         -0.93120720        0.042862
        73         -0.93125003        0.042862
        74         -0.93125933        0.042862
        75         -0.93129327        0.042862
        76         -0.93129630        0.042862
        77         -0.93140143        0.042862
        78         -0.93141596        0.042862
        79         -0.93141623        0.042862
        80         -0.93150276        0.042862
        81         -0.93151606        0.039685
        82         -0.93154181        0.036743
        83         -0.93157574        0.034020
        84         -0.93158826        0.034020
        85         -0.93160420        0.034020
        86         -0.93164578        0.034020
        87         -0.93164630        0.034020
        88         -0.93167194        0.031498
        89         -0.93169599        0.031498
        90         -0.93171574        0.031498
        91         -0.93171924        0.031498
        92         -0.93174034        0.031498
        93         -0.93174169        0.031498
        94         -0.93174454        0.031498
        95         -0.93175171        0.031498
        96         -0.93175429        0.029163
        97         -0.93179377        0.029163
        98         -0.93180692        0.029163
        99         -0.93180823        0.029163
       100         -0.93182204        0.029163
       101         -0.93182659        0.029163
       102         -0.93184137        0.029163
       103         -0.93186719        0.029163
       104         -0.93188331        0.029163
       105         -0.93190749        0.027001
       106         -0.93192136        0.027001
       107         -0.93193097        0.027001
       108         -0.93193609        0.025000
       109         -0.93196255        0.025000
       110         -0.93197495        0.023147
       111         -0.93198044        0.023147
       112         -0.93198509        0.023147
       113         -0.93200356        0.023147
       114         -0.93202128        0.023147
       115         -0.93202810        0.023147
       116         -0.93204424        0.023147
       117         -0.93206905        0.023147
       118         -0.93207656        0.021431
       119         -0.93207820        0.021431
       120         -0.93208028        0.021431
       121         -0.93209047        0.021431
       122         -0.93211553        0.021431
       123         -0.93212307        0.021431
       124         -0.93214852        0.021431
       125         -0.93215654        0.021431
       126         -0.93216568        0.021431
       127         -0.93216804        0.021431
       128         -0.93217415        0.021431
       129         -0.93217443        0.021431
       130         -0.93218152        0.021431
       131         -0.93219013        0.021431
       132         -0.93219567        0.021431
       133         -0.93220090        0.021431
       134         -0.93221660        0.021431
       135         -0.93221944        0.021431
       136         -0.93223189        0.021431
       137         -0.93223970        0.021431
       138         -0.93224841        0.021431
       139         -0.93225404        0.021431
       140         -0.93226938        0.021431
       141         -0.93227056        0.021431
       142         -0.93228041        0.021431
       143         -0.93228395        0.021431
       144         -0.93228900        0.021431
       145         -0.93229215        0.021431
       146         -0.93229585        0.021431
       147         -0.93230837        0.019843
       148         -0.93231247        0.019843
       149         -0.93231914        0.019843
       150         -0.93232674        0.019843
       151         -0.93232954        0.019843
       152         -0.93234254        0.019843
       153         -0.93235736        0.019843
       154         -0.93235766        0.019843
       155         -0.93235890        0.019843
       156         -0.93237627        0.019843
       157         -0.93239500        0.019843
       158         -0.93240940        0.019843
       159         -0.93241789        0.019843
       160         -0.93243035        0.019843
       161         -0.93243859        0.019843
       162         -0.93244486        0.019843
       163         -0.93245099        0.019843
       164         -0.93245738        0.019843
       165         -0.93246348        0.019843
       166         -0.93246798        0.019843
       167         -0.93247736        0.019843
       168         -0.93248782        0.019843
       169         -0.93249054        0.019843
       170         -0.93249212        0.019843
       171         -0.93249626        0.019843
       172         -0.93249938        0.019843
       173         -0.93250135        0.019843
       174         -0.93250807        0.019843
       175         -0.93251382        0.019843
       176         -0.93252816        0.019843
       177         -0.93252953        0.019843
       178         -0.93253818        0.019843
       179         -0.93254254        0.019843
       180         -0.93254555        0.019843
       181         -0.93255574        0.019843
       182         -0.93256060        0.019843
       183         -0.93256628        0.019843
       184         -0.93258112        0.019843
       185         -0.93258866        0.018372
       186         -0.93258869        0.018372
       187         -0.93259276        0.018372
       188         -0.93259763        0.017010
       189         -0.93260417        0.017010
       190         -0.93261198        0.017010
       191         -0.93262319        0.017010
       192         -0.93262814        0.017010
       193         -0.93263339        0.017010
       194         -0.93263375        0.017010
       195         -0.93263650        0.017010
       196         -0.93263669        0.017010
       197         -0.93265159        0.017010
       198         -0.93266214        0.017010
       199         -0.93267185        0.015749
       200         -0.93268216        0.015749
       201         -0.93268862        0.015749
       202         -0.93269033        0.015749
       203         -0.93269832        0.015749
       204         -0.93270831        0.015749
       205         -0.93271504        0.015749
       206         -0.93272234        0.015749
       207         -0.93274113        0.015749
       208         -0.93274384        0.015749
       209         -0.93274504        0.015749
       210         -0.93276983        0.015749
       211         -0.93277429        0.015749
       212         -0.93277482        0.015749
       213         -0.93278393        0.015749
       214         -0.93278993        0.014582
       215         -0.93279203        0.014582
       216         -0.93279389        0.014582
       217         -0.93279777        0.014582
       218         -0.93280148        0.014582
       219         -0.93280364        0.014582
       220         -0.93280865        0.014582
       221         -0.93282208        0.014582
       222         -0.93282279        0.014582
       223         -0.93282505        0.014582
       224         -0.93282722        0.014582
       225         -0.93284268        0.014582
       226         -0.93284353        0.013501
       227         -0.93284859        0.013501
       228         -0.93285149        0.013501
       229         -0.93285762        0.013501
       230         -0.93286471        0.013501
       231         -0.93287235        0.013501
       232         -0.93287998        0.013501
       233         -0.93288267        0.013501
       234         -0.93288669        0.013501
       235         -0.93289220        0.013501
       236         -0.93290200        0.012500
       237         -0.93291411        0.012500
       238         -0.93291775        0.012500
       239         -0.93292430        0.012500
       240         -0.93292430        0.012500
       241         -0.93292713        0.012500
       242         -0.93293210        0.012500
       243         -0.93293896        0.012500
       244         -0.93294088        0.011573
       245         -0.93294443        0.011573
       246         -0.93294542        0.011573
       247         -0.93294574        0.011573
       248         -0.93295077        0.011573
       249         -0.93295107        0.011573
       250         -0.93295426        0.011573
       251         -0.93296242        0.011573
       252         -0.93296311        0.011573
       253         -0.93296479        0.011573
       254         -0.93296654        0.011573
       255         -0.93296822        0.011573
       256         -0.93296921        0.011573
       257         -0.93296923        0.011573
       258         -0.93297182        0.011573
       259         -0.93297380        0.011573
       260         -0.93297655        0.011573
       261         -0.93297794        0.011573
       262         -0.93298144        0.011573
       263         -0.93298427        0.009921
       264         -0.93299001        0.009921
       265         -0.93299102        0.009921
       266         -0.93299143        0.009921
       267         -0.93299626        0.009921
       268         -0.93300179        0.009921
       269         -0.93300409        0.009921
       270         -0.93300630        0.009921
       271         -0.93300637        0.009921
       272         -0.93300987        0.009921
       273         -0.93301206        0.009921
       274         -0.93301397        0.009921
       275         -0.93301740        0.009921
       276         -0.93301965        0.009921
       277         -0.93302101        0.009921
       278         -0.93302273        0.009921
       279         -0.93302498        0.009921
       280         -0.93303173        0.009921
       281         -0.93303814        0.009921
       282         -0.93304096        0.009921
       283         -0.93304211        0.009921
       284         -0.93304350        0.009921
       285         -0.93304978        0.009921
       286         -0.93305377        0.009921
       287         -0.93305470        0.009921
       288         -0.93306005        0.009921
       289         -0.93306366        0.009921
       290         -0.93306988        0.009921
       291         -0.93307133        0.009921
       292         -0.93307218        0.009921
       293         -0.93307776        0.009921
       294         -0.93307923        0.009921
       295         -0.93308300        0.009921
       296         -0.93308631        0.009921
       297         -0.93308796        0.009921
       298         -0.93309327        0.009921
       299         -0.93309652        0.009921
       300         -0.93310102        0.009921
       301         -0.93310378        0.009921
       302         -0.93310543        0.009921
       303         -0.93310619        0.009921
       304         -0.93310721        0.009921
       305         -0.93311000        0.009921
       306         -0.93311030        0.009921
       307         -0.93311289        0.009921
       308         -0.93311425        0.009921
       309         -0.93311615        0.009921
       310         -0.93311636        0.009921
       311         -0.93312272        0.009921
       312         -0.93312400        0.009921
       313         -0.93312796        0.009921
       314         -0.93312914        0.009921
       315         -0.93313027        0.009921
       316         -0.93313124        0.009921
       317         -0.93313338        0.009921
       318         -0.93313925        0.009921
       319         -0.93314035        0.009921
       320         -0.93314339        0.009921
       321         -0.93314539        0.009921
       322         -0.93314620        0.009921
       323         -0.93315272        0.009921
       324         -0.93316038        0.009921
       325         -0.93316216        0.009186
       326         -0.93316722        0.009186
       327         -0.93316826        0.009186
       328         -0.93317104        0.009186
       329         -0.93317428        0.009186
       330         -0.93318087        0.009186
       331         -0.93318379        0.009186
       332         -0.93319032        0.009186
       333         -0.93319172        0.009186
       334         -0.93319222        0.009186
       335         -0.93319370        0.009186
       336         -0.93319741        0.009186
       337         -0.93319766        0.009186
       338         -0.93320617        0.009186
       339         -0.93320773        0.009186
       340         -0.93321023        0.009186
       341         -0.93321046        0.009186
       342         -0.93321050        0.009186
       343         -0.93321165        0.009186
       344         -0.93321884        0.009186
       345         -0.93322420        0.009186
       346         -0.93322864        0.009186
       347         -0.93323053        0.009186
       348         -0.93323097        0.009186
       349         -0.93323542        0.009186
       350         -0.93323829        0.009186
       351         -0.93323965        0.009186
       352         -0.93324016        0.009186
       353         -0.93324046        0.009186
       354         -0.93324340        0.009186
       355         -0.93324617        0.009186
       356         -0.93324651        0.009186
       357         -0.93324931        0.009186
       358         -0.93325323        0.009186
       359         -0.93325566        0.009186
       360         -0.93325987        0.009186
       361         -0.93326461        0.009186
       362         -0.93326862        0.009186
       363         -0.93327378        0.009186
       364         -0.93327637        0.008505
       365         -0.93327801        0.008505
       366         -0.93327830        0.008505
       367         -0.93328139        0.008505
       368         -0.93328453        0.008505
       369         -0.93328877        0.008505
       370         -0.93328986        0.008505
       371         -0.93329053        0.008505
       372         -0.93329214        0.008505
       373         -0.93329235        0.008505
       374         -0.93329319        0.008505
       375         -0.93329909        0.008505
       376         -0.93329976        0.008505
       377         -0.93330004        0.008505
       378         -0.93330668        0.008505
       379         -0.93330709        0.008505
       380         -0.93331081        0.008505
       381         -0.93331547        0.008505
       382         -0.93331613        0.008505
       383         -0.93331649        0.008505
       384         -0.93331707        0.008505
       385         -0.93331714        0.008505
       386         -0.93331814        0.008505
       387         -0.93332003        0.008505
       388         -0.93332158        0.008505
       389         -0.93332370        0.008505
       390         -0.93332733        0.008505
       391         -0.93332810        0.008505
       392         -0.93333032        0.008505
       393         -0.93333274        0.008505
       394         -0.93333506        0.008505
       395         -0.93333568        0.008505
       396         -0.93333619        0.008505
       397         -0.93333748        0.008505
       398         -0.93334405        0.008505
       399         -0.93334486        0.008505
       400         -0.93334854        0.008505
       401         -0.93334871        0.008505
       402         -0.93335524        0.008505
       403         -0.93335932        0.008505
       404         -0.93336085        0.008505
       405         -0.93336308        0.008505
       406         -0.93336598        0.008505
       407         -0.93337264        0.008505
       408         -0.93337323        0.008505
       409         -0.93337930        0.008505
       410         -0.93338354        0.008505
       411         -0.93338375        0.008505
       412         -0.93338442        0.008505
       413         -0.93339020        0.008505
       414         -0.93339505        0.008505
       415         -0.93339568        0.008505
       416         -0.93339724        0.008505
       417         -0.93339730        0.008505
       418         -0.93339779        0.008505
       419         -0.93340325        0.008505
       420         -0.93340659        0.008505
       421         -0.93341101        0.008505
       422         -0.93341500        0.008505
       423         -0.93342020        0.008505
       424         -0.93342184        0.008505
       425         -0.93342450        0.008505
       426         -0.93342539        0.008505
       427         -0.93342662        0.008505
       428         -0.93343078        0.008505
       429         -0.93343472        0.008505
       430         -0.93343777        0.008505
       431         -0.93344234        0.008505
       432         -0.93344334        0.008505
       433         -0.93344741        0.008505
       434         -0.93345403        0.008505
       435         -0.93345600        0.008505
       436         -0.93345666        0.008505
       437         -0.93345686        0.008505
       438         -0.93345920        0.008505
       439         -0.93346014        0.008505
       440         -0.93346651        0.008505
       441         -0.93346842        0.008505
       442         -0.93346893        0.008505
       443         -0.93347155        0.008505
       444         -0.93347248        0.008505
       445         -0.93347325        0.008505
       446         -0.93347452        0.008505
       447         -0.93347514        0.008505
       448         -0.93347525        0.008505
       449         -0.93347880        0.008505
       450         -0.93348326        0.008505
       451         -0.93348387        0.008505
       452         -0.93348400        0.008505
       453         -0.93348515        0.008505
       454         -0.93348668        0.008505
       455         -0.93348815        0.008505
       456         -0.93348833        0.008505
       457         -0.93348904        0.007875
       458         -0.93349290        0.007875
       459         -0.93349493        0.007875
       460         -0.93349524        0.007875
       461         -0.93349689        0.007875
       462         -0.93350383        0.007875
       463         -0.93350577        0.007875
       464         -0.93350648        0.007875
       465         -0.93350865        0.007875
       466         -0.93350901        0.007875
       467         -0.93351335        0.007875
       468         -0.93351372        0.007875
       469         -0.93351394        0.007875
       470         -0.93351448        0.007875
       471         -0.93351515        0.007875
       472         -0.93351846        0.007875
       473         -0.93351982        0.007875
       474         -0.93352143        0.007875
       475         -0.93352814        0.007875
       476         -0.93353154        0.007875
       477         -0.93353585        0.007875
       478         -0.93353679        0.007875
       479         -0.93353943        0.007875
       480         -0.93354002        0.007875
       481         -0.93354278        0.007875
       482         -0.93354438        0.007875
       483         -0.93354728        0.007875
       484         -0.93354824        0.007875
       485         -0.93354895        0.007875
       486         -0.93355148        0.007875
       487         -0.93355359        0.007875
       488         -0.93355772        0.007875
       489         -0.93355883        0.007875
       490         -0.93355997        0.007875
       491         -0.93356368        0.007875
       492         -0.93356497        0.007875
       493         -0.93356521        0.007875
       494         -0.93356787        0.007875
       495         -0.93356965        0.007875
       496         -0.93357463        0.007875
       497         -0.93357547        0.007875
       498         -0.93357652        0.007875
       499         -0.93357660        0.007875
       500         -0.93357718        0.007875
       501         -0.93357912        0.007875
       502         -0.93358083        0.007875
       503         -0.93358449        0.007875
       504         -0.93358532        0.007875
       505         -0.93358758        0.007875
       506         -0.93358808        0.007875
       507         -0.93359360        0.007875
       508         -0.93359379        0.007875
       509         -0.93359472        0.007875
       510         -0.93359956        0.007875
       511         -0.93360538        0.007875
       512         -0.93360995        0.007875
       513         -0.93361109        0.007875
       514         -0.93361325        0.007875
       515         -0.93361899        0.007875
       516         -0.93361932        0.007875
       517         -0.93361936        0.007875
       518         -0.93362138        0.007875
       519         -0.93362520        0.007875
       520         -0.93362773        0.007875
       521         -0.93363077        0.007875
       522         -0.93363296        0.007875
       523         -0.93363524        0.007875
       524         -0.93363998        0.007875
       525         -0.93364270        0.007875
       526         -0.93364506        0.007875
       527         -0.93364600        0.007875
       528         -0.93365095        0.007875
       529         -0.93365111        0.007875
       530         -0.93365118        0.007875
       531         -0.93365176        0.007875
       532         -0.93365447        0.007875
       533         -0.93365660        0.007875
       534         -0.93365979        0.007875
       535         -0.93366054        0.007875
       536         -0.93366352        0.007875
       537         -0.93366794        0.007875
       538         -0.93367391        0.007875
       539         -0.93367622        0.007875
       540         -0.93367800        0.007875
       541         -0.93367890        0.007875
       542         -0.93368112        0.007875
       543         -0.93368126        0.007875
       544         -0.93368196        0.007875
       545         -0.93368211        0.007875
       546         -0.93368287        0.007875
       547         -0.93368428        0.007875
       548         -0.93368569        0.007875
       549         -0.93369374        0.007875
       550         -0.93369487        0.007875
       551         -0.93369499        0.007875
       552         -0.93369815        0.007875
       553         -0.93370113        0.007875
       554         -0.93370113        0.007875
       555         -0.93370766        0.007875
       556         -0.93370984        0.007875
       557         -0.93371282        0.007875
       558         -0.93371582        0.007875
       559         -0.93372050        0.007875
       560         -0.93372370        0.007875
       561         -0.93372856        0.007875
       562         -0.93373069        0.007875
       563         -0.93373362        0.007875
       564         -0.93373413        0.007875
       565         -0.93373649        0.007875
       566         -0.93373695        0.007875
       567         -0.93373897        0.007875
       568         -0.93374101        0.007875
       569         -0.93374133        0.007875
       570         -0.93374357        0.007875
       571         -0.93374452        0.007875
       572         -0.93374484        0.007875
       573         -0.93374934        0.007875
       574         -0.93375127        0.007875
       575         -0.93375408        0.007875
       576         -0.93376025        0.007875
       577         -0.93376488        0.007875
       578         -0.93376717        0.007875
       579         -0.93377019        0.007875
       580         -0.93377307        0.007875
       581         -0.93377542        0.007875
       582         -0.93377817        0.007875
       583         -0.93377877        0.007875
       584         -0.93378109        0.007875
       585         -0.93378168        0.007875
       586         -0.93378421        0.007875
       587         -0.93378471        0.007875
       588         -0.93378666        0.007875
       589         -0.93378759        0.007875
       590         -0.93378845        0.007875
       591         -0.93378992        0.007875
       592         -0.93378996        0.007875
       593         -0.93379491        0.007875
       594         -0.93379628        0.007875
       595         -0.93379705        0.007875
       596         -0.93379936        0.007875
       597         -0.93380504        0.007875
       598         -0.93380633        0.007875
       599         -0.93381058        0.007875
       600         -0.93381084        0.007875
       601         -0.93381157        0.007875
       602         -0.93381343        0.007875
       603         -0.93381395        0.007875
       604         -0.93381599        0.007875
       605         -0.93382229        0.007875
       606         -0.93382576        0.007875
       607         -0.93382627        0.007875
       608         -0.93382925        0.007875
       609         -0.93382945        0.007875
       610         -0.93383187        0.007875
       611         -0.93383580        0.007875
       612         -0.93383724        0.007875
       613         -0.93384248        0.007875
       614         -0.93384324        0.007875
       615         -0.93384554        0.007875
       616         -0.93384623        0.007875
       617         -0.93384722        0.007875
       618         -0.93384961        0.007875
       619         -0.93385603        0.007875
       620         -0.93385814        0.007875
       621         -0.93385975        0.007875
       622         -0.93386036        0.007875
       623         -0.93386065        0.007875
       624         -0.93386230        0.007875
       625         -0.93386317        0.007875
       626         -0.93386468        0.007875
       627         -0.93386863        0.007875
       628         -0.93387140        0.007875
       629         -0.93387288        0.007875
       630         -0.93387880        0.007875
       631         -0.93388168        0.007875
       632         -0.93388262        0.007875
       633         -0.93388343        0.007875
       634         -0.93388466        0.007875
       635         -0.93388551        0.007875
       636         -0.93388967        0.007875
       637         -0.93389270        0.007875
       638         -0.93389381        0.007875
       639         -0.93389660        0.007875
       640         -0.93389992        0.007875
       641         -0.93390126        0.007875
       642         -0.93390583        0.007875
       643         -0.93390633        0.007875
       644         -0.93390695        0.007875
       645         -0.93391076        0.007875
       646         -0.93391249        0.007875
       647         -0.93391287        0.007875
       648         -0.93391468        0.007875
       649         -0.93391473        0.007875
       650         -0.93391920        0.007875
       651         -0.93392300        0.007875
       652         -0.93392435        0.007875
       653         -0.93392608        0.007875
       654         -0.93392641        0.007875
       655         -0.93392936        0.007875
       656         -0.93393062        0.007875
       657         -0.93393079        0.007875
       658         -0.93393336        0.007875
       659         -0.93393526        0.007875
       660         -0.93393671        0.007875
       661         -0.93393682        0.007875
       662         -0.93393824        0.007875
       663         -0.93394191        0.007875
       664         -0.93394219        0.007875
       665         -0.93394283        0.007875
       666         -0.93394396        0.007875
       667         -0.93394640        0.007875
       668         -0.93395551        0.007875
       669         -0.93395965        0.007875
       670         -0.93395985        0.007875
       671         -0.93396402        0.007875
       672         -0.93396598        0.007875
       673         -0.93396774        0.007875
       674         -0.93396967        0.007875
       675         -0.93397211        0.007875
       676         -0.93397709        0.007875
       677         -0.93397750        0.007875
       678         -0.93397893        0.007875
       679         -0.93398388        0.007875
       680         -0.93398415        0.007875
       681         -0.93398565        0.007875
       682         -0.93398745        0.007875
       683         -0.93398998        0.007875
       684         -0.93399245        0.007875
       685         -0.93399268        0.007875
       686         -0.93399571        0.007875
       687         -0.93399719        0.007875
       688         -0.93399769        0.007875
       689         -0.93399837        0.007875
       690         -0.93400431        0.007875
       691         -0.93400454        0.007875
       692         -0.93400629        0.007875
       693         -0.93400765        0.007875
       694         -0.93401363        0.007875
       695         -0.93401414        0.007875
       696         -0.93401469        0.007875
       697         -0.93401503        0.007875
       698         -0.93401667        0.007875
       699         -0.93401829        0.007875
       700         -0.93401970        0.007875
       701         -0.93402135        0.007875
       702         -0.93402643        0.007875
       703         -0.93402767        0.007875
       704         -0.93402784        0.007875
       705         -0.93402999        0.007875
       706         -0.93403149        0.007875
       707         -0.93403835        0.007875
       708         -0.93403863        0.007875
       709         -0.93403988        0.007875
       710         -0.93404007        0.007875
       711         -0.93404353        0.007875
       712         -0.93404444        0.007875
       713         -0.93404536        0.007875
       714         -0.93404569        0.007875
       715         -0.93404600        0.007875
       716         -0.93404854        0.007875
       717         -0.93405178        0.007875
       718         -0.93405412        0.007875
       719         -0.93405454        0.007875
       720         -0.93405553        0.007875
       721         -0.93406047        0.007875
       722         -0.93406215        0.007875
       723         -0.93406437        0.007875
       724         -0.93407365        0.007875
       725         -0.93407608        0.007875
       726         -0.93407807        0.007875
       727         -0.93407903        0.007875
       728         -0.93407958        0.007875
       729         -0.93407986        0.007875
       730         -0.93408076        0.007875
       731         -0.93408365        0.007875
       732         -0.93408511        0.007875
       733         -0.93408768        0.007875
       734         -0.93408829        0.007875
       735         -0.93408891        0.007875
       736         -0.93409123        0.007875
       737         -0.93409611        0.007875
       738         -0.93409633        0.007875
       739         -0.93409923        0.007875
       740         -0.93410272        0.007875
       741         -0.93410520        0.007875
       742         -0.93410540        0.007875
       743         -0.93410603        0.007875
       744         -0.93411122        0.007875
       745         -0.93411409        0.007875
       746         -0.93411473        0.007875
       747         -0.93411502        0.007875
       748         -0.93411567        0.007875
       749         -0.93411630        0.007875
       750         -0.93411751        0.007875
       751         -0.93411980        0.007875
       752         -0.93412027        0.007875
       753         -0.93412235        0.007875
       754         -0.93412510        0.007875
       755         -0.93412549        0.007875
       756         -0.93412623        0.007875
       757         -0.93412695        0.007875
       758         -0.93413051        0.007875
       759         -0.93413106        0.007875
       760         -0.93413284        0.007875
       761         -0.93413300        0.007875
       762         -0.93413452        0.007875
       763         -0.93413594        0.007875
       764         -0.93413653        0.007875
       765         -0.93413759        0.007875
       766         -0.93414157        0.007875
       767         -0.93414565        0.007875
       768         -0.93414589        0.007875
       769         -0.93414849        0.007875
       770         -0.93414972        0.007875
       771         -0.93415279        0.007875
       772         -0.93415444        0.007875
       773         -0.93415619        0.007875
       774         -0.93416062        0.007875
       775         -0.93416063        0.007875
       776         -0.93416479        0.007875
       777         -0.93416832        0.007875
       778         -0.93417113        0.007875
       779         -0.93417120        0.007875
       780         -0.93417175        0.007875
       781         -0.93417240        0.007875
       782         -0.93417264        0.007875
       783         -0.93417331        0.007875
       784         -0.93417544        0.007875
       785         -0.93417643        0.007875
       786         -0.93417854        0.007875
       787         -0.93418062        0.007875
       788         -0.93418415        0.007875
       789         -0.93418483        0.007875
       790         -0.93418588        0.007875
       791         -0.93418613        0.007875
       792         -0.93418982        0.007875
       793         -0.93419161        0.007875
       794         -0.93419338        0.007875
       795         -0.93419629        0.007875
       796         -0.93419719        0.007875
       797         -0.93420011        0.007875
       798         -0.93420057        0.007875
       799         -0.93420529        0.007875
       800         -0.93420744        0.007875
       801         -0.93420803        0.007875
       802         -0.93421106        0.007875
       803         -0.93421163        0.007875
       804         -0.93421293        0.007875
       805         -0.93421650        0.007875
       806         -0.93422138        0.007875
       807         -0.93422150        0.007875
       808         -0.93422302        0.007875
       809         -0.93422720        0.007875
       810         -0.93422837        0.007875
       811         -0.93422907        0.007875
       812         -0.93422933        0.007875
       813         -0.93423075        0.007875
       814         -0.93423193        0.007875
       815         -0.93423271        0.007875
       816         -0.93423724        0.007875
       817         -0.93423951        0.007875
       818         -0.93424288        0.007875
       819         -0.93424298        0.007875
       820         -0.93424383        0.007875
       821         -0.93424444        0.007875
       822         -0.93424460        0.007875
       823         -0.93424532        0.007875
       824         -0.93424571        0.007875
       825         -0.93424720        0.007875
       826         -0.93424760        0.007875
       827         -0.93424791        0.007875
       828         -0.93424794        0.007875
       829         -0.93425183        0.007875
       830         -0.93425684        0.007875
       831         -0.93425847        0.007875
       832         -0.93425979        0.007875
       833         -0.93426081        0.007875
       834         -0.93426637        0.007875
       835         -0.93427263        0.007875
       836         -0.93427530        0.007875
       837         -0.93427650        0.007875
       838         -0.93427879        0.007875
       839         -0.93428072        0.007875
       840         -0.93428171        0.007875
       841         -0.93428238        0.007875
       842         -0.93428360        0.007875
       843         -0.93428478        0.007875
       844         -0.93428507        0.007875
       845         -0.93428656        0.007875
       846         -0.93428729        0.007875
       847         -0.93428748        0.007291
       848         -0.93428800        0.007291
       849         -0.93429214        0.007291
       850         -0.93429698        0.007291
       851         -0.93429770        0.007291
       852         -0.93430013        0.007291
       853         -0.93430452        0.007291
       854         -0.93430844        0.007291
       855         -0.93430877        0.007291
       856         -0.93430976        0.007291
       857         -0.93431273        0.007291
       858         -0.93431480        0.007291
       859         -0.93431704        0.007291
       860         -0.93431725        0.007291
       861         -0.93432188        0.007291
       862         -0.93432248        0.007291
       863         -0.93432363        0.007291
       864         -0.93432450        0.007291
       865         -0.93432734        0.007291
       866         -0.93432753        0.007291
       867         -0.93432827        0.007291
       868         -0.93432854        0.007291
       869         -0.93433075        0.007291
       870         -0.93433232        0.007291
       871         -0.93433560        0.006750
       872         -0.93433703        0.006250
       873         -0.93433805        0.006250
       874         -0.93433805        0.006250
       875         -0.93434170        0.006250
       876         -0.93434178        0.006250
       877         -0.93434258        0.006250
       878         -0.93434273        0.006250
       879         -0.93434385        0.006250
       880         -0.93434414        0.006250
       881         -0.93434516        0.006250
       882         -0.93434584        0.006250
       883         -0.93434812        0.006250
       884         -0.93434818        0.006250
       885         -0.93435062        0.006250
       886         -0.93435326        0.006250
       887         -0.93435966        0.006250
       888         -0.93436132        0.006250
       889         -0.93436446        0.006250
       890         -0.93436520        0.006250
       891         -0.93436843        0.006250
       892         -0.93437093        0.006250
       893         -0.93437149        0.006250
       894         -0.93437528        0.006250
       895         -0.93437683        0.006250
       896         -0.93437995        0.006250
       897         -0.93438177        0.006250
       898         -0.93438222        0.006250
       899         -0.93438328        0.006250
       900         -0.93438341        0.006250
       901         -0.93438617        0.006250
       902         -0.93438767        0.006250
       903         -0.93439245        0.006250
       904         -0.93439529        0.006250
       905         -0.93439646        0.006250
       906         -0.93439698        0.006250
       907         -0.93439753        0.006250
       908         -0.93439826        0.006250
       909         -0.93439852        0.006250
       910         -0.93440191        0.006250
       911         -0.93440193        0.006250
       912         -0.93440424        0.006250
       913         -0.93440494        0.006250
       914         -0.93440578        0.006250
       915         -0.93440668        0.006250
       916         -0.93440956        0.006250
       917         -0.93441002        0.006250
       918         -0.93441144        0.006250
       919         -0.93441248        0.006250
       920         -0.93441330        0.006250
       921         -0.93441649        0.006250
       922         -0.93441669        0.006250
       923         -0.93442016        0.006250
       924         -0.93442433        0.006250
       925         -0.93442593        0.006250
       926         -0.93442655        0.006250
       927         -0.93442820        0.006250
       928         -0.93443036        0.006250
       929         -0.93443373        0.006250
       930         -0.93443653        0.006250
       931         -0.93443912        0.006250
       932         -0.93443988        0.006250
       933         -0.93444011        0.006250
       934         -0.93444161        0.006250
       935         -0.93444314        0.006250
       936         -0.93444581        0.006250
       937         -0.93444859        0.006250
       938         -0.93444979        0.006250
       939         -0.93444995        0.006250
       940         -0.93445011        0.006250
       941         -0.93445118        0.006250
       942         -0.93445215        0.006250
       943         -0.93445373        0.006250
       944         -0.93445378        0.006250
       945         -0.93445555        0.006250
       946         -0.93445583        0.006250
       947         -0.93445657        0.006250
       948         -0.93445695        0.006250
       949         -0.93445753        0.006250
       950         -0.93445895        0.006250
       951         -0.93445913        0.006250
       952         -0.93445940        0.006250
       953         -0.93445949        0.006250
       954         -0.93446045        0.006250
       955         -0.93446107        0.006250
       956         -0.93446234        0.005787
       957         -0.93446259        0.005787
       958         -0.93446303        0.005787
       959         -0.93446362        0.005787
       960         -0.93446488        0.005787
       961         -0.93446589        0.005787
       962         -0.93446635        0.005787
       963         -0.93446666        0.005787
       964         -0.93446729        0.005787
       965         -0.93446986        0.005787
       966         -0.93447051        0.005787
       967         -0.93447059        0.005787
       968         -0.93447202        0.005787
       969         -0.93447377        0.005787
       970         -0.93447533        0.005787
       971         -0.93447576        0.005787
       972         -0.93447681        0.005787
       973         -0.93448073        0.005787
       974         -0.93448200        0.005787
       975         -0.93448321        0.005787
       976         -0.93448395        0.005787
       977         -0.93448430        0.005787
       978         -0.93448544        0.005787
       979         -0.93448919        0.005787
       980         -0.93448950        0.005787
       981         -0.93448981        0.005787
       982         -0.93448983        0.005787
       983         -0.93449023        0.005787
       984         -0.93449048        0.005787
       985         -0.93449341        0.005787
       986         -0.93449481        0.005787
       987         -0.93449515        0.005787
       988         -0.93449695        0.005787
       989         -0.93449848        0.005787
       990         -0.93450098        0.005787
       991         -0.93450197        0.005787
       992         -0.93450212        0.005787
       993         -0.93450260        0.005787
       994         -0.93450405        0.005787
       995         -0.93450541        0.005787
       996         -0.93450638        0.005787
       997         -0.93450774        0.005787
       998         -0.93451111        0.005787
       999         -0.93451428        0.005787
      1000         -0.93451433        0.005787
      1001         -0.93451468        0.005787
      1002         -0.93451526        0.005787
      1003         -0.93451666        0.005787
      1004         -0.93451777        0.005787
      1005         -0.93451797        0.005787
      1006         -0.93451894        0.005787
      1007         -0.93452192        0.005787
      1008         -0.93452302        0.005787
      1009         -0.93452324        0.005787
      1010         -0.93452430        0.005787
      1011         -0.93452755        0.005787
      1012         -0.93452871        0.005787
      1013         -0.93452894        0.005787
      1014         -0.93452919        0.005787
      1015         -0.93452964        0.005787
      1016         -0.93453100        0.005787
      1017         -0.93453155        0.005787
      1018         -0.93453411        0.005787
      1019         -0.93453543        0.005787
      1020         -0.93453567        0.005787
      1021         -0.93453626        0.005787
      1022         -0.93453956        0.005787
      1023         -0.93453960        0.005787
      1024         -0.93454048        0.005787
      1025         -0.93454196        0.005787
      1026         -0.93454338        0.005787
      1027         -0.93454414        0.005787
      1028         -0.93454440        0.005787
      1029         -0.93454519        0.005787
      1030         -0.93454586        0.005787
      1031         -0.93454833        0.005787
      1032         -0.93454867        0.005787
      1033         -0.93454881        0.005787
      1034         -0.93455018        0.005787
      1035         -0.93455065        0.005787
      1036         -0.93455292        0.005787
      1037         -0.93455297        0.005787
      1038         -0.93455308        0.005787
      1039         -0.93455488        0.005787
      1040         -0.93455512        0.005358
      1041         -0.93455754        0.005358
      1042         -0.93455908        0.005358
      1043         -0.93456077        0.005358
      1044         -0.93456079        0.005358
      1045         -0.93456104        0.005358
      1046         -0.93456112        0.005358
      1047         -0.93456277        0.005358
      1048         -0.93456372        0.005358
      1049         -0.93456440        0.005358
      1050         -0.93456502        0.005358
      1051         -0.93456688        0.005358
      1052         -0.93456720        0.005358
      1053         -0.93456820        0.005358
      1054         -0.93456973        0.005358
      1055         -0.93457032        0.005358
      1056         -0.93457389        0.005358
      1057         -0.93457625        0.005358
      1058         -0.93457652        0.005358
      1059         -0.93457697        0.005358
      1060         -0.93457904        0.005358
      1061         -0.93458008        0.005358
      1062         -0.93458078        0.005358
      1063         -0.93458081        0.005358
      1064         -0.93458197        0.005358
      1065         -0.93458330        0.005358
      1066         -0.93458458        0.005358
      1067         -0.93458485        0.005358
      1068         -0.93458694        0.005358
      1069         -0.93458849        0.005358
      1070         -0.93458957        0.005358
      1071         -0.93459003        0.005358
      1072         -0.93459136        0.005358
      1073         -0.93459264        0.005358
      1074         -0.93459299        0.005358
      1075         -0.93459319        0.005358
      1076         -0.93459398        0.005358
      1077         -0.93459519        0.005358
      1078         -0.93459745        0.005358
      1079         -0.93459885        0.005358
      1080         -0.93459930        0.005358
      1081         -0.93459976        0.005358
      1082         -0.93460198        0.005358
      1083         -0.93460254        0.005358
      1084         -0.93460281        0.005358
      1085         -0.93460360        0.005358
      1086         -0.93460545        0.005358
      1087         -0.93460553        0.005358
      1088         -0.93460656        0.005358
      1089         -0.93460734        0.005358
      1090         -0.93460738        0.005358
      1091         -0.93460880        0.005358
      1092         -0.93460886        0.005358
      1093         -0.93460996        0.005358
      1094         -0.93461026        0.005358
      1095         -0.93461242        0.005358
      1096         -0.93461312        0.005358
      1097         -0.93461335        0.005358
      1098         -0.93461378        0.005358
      1099         -0.93461403        0.005358
      1100         -0.93461735        0.005358
      1101         -0.93461972        0.005358
      1102         -0.93462074        0.005358
      1103         -0.93462096        0.005358
      1104         -0.93462331        0.005358
      1105         -0.93462344        0.005358
      1106         -0.93462421        0.005358
      1107         -0.93462719        0.005358
      1108         -0.93462798        0.005358
      1109         -0.93462875        0.005358
      1110         -0.93463024        0.005358
      1111         -0.93463136        0.005358
      1112         -0.93463139        0.005358
      1113         -0.93463221        0.005358
      1114         -0.93463368        0.005358
      1115         -0.93463381        0.005358
      1116         -0.93463437        0.005358
      1117         -0.93463468        0.005358
      1118         -0.93463585        0.005358
      1119         -0.93464082        0.005358
      1120         -0.93464096        0.005358
      1121         -0.93464303        0.005358
      1122         -0.93464311        0.005358
      1123         -0.93464430        0.005358
      1124         -0.93464570        0.005358
      1125         -0.93464580        0.005358
      1126         -0.93464706        0.005358
      1127         -0.93464773        0.005358
      1128         -0.93465100        0.005358
      1129         -0.93465137        0.005358
      1130         -0.93465286        0.005358
      1131         -0.93465418        0.005358
      1132         -0.93465704        0.005358
      1133         -0.93465730        0.005358
      1134         -0.93465892        0.005358
      1135         -0.93466046        0.005358
      1136         -0.93466218        0.005358
      1137         -0.93466314        0.005358
      1138         -0.93466445        0.005358
      1139         -0.93466588        0.005358
      1140         -0.93466596        0.005358
      1141         -0.93466641        0.005358
      1142         -0.93466802        0.005358
      1143         -0.93466830        0.005358
      1144         -0.93466951        0.005358
      1145         -0.93466956        0.005358
      1146         -0.93467115        0.005358
      1147         -0.93467120        0.005358
      1148         -0.93467145        0.005358
      1149         -0.93467281        0.005358
      1150         -0.93467481        0.005358
      1151         -0.93467491        0.005358
      1152         -0.93467536        0.004961
      1153         -0.93467779        0.004961
      1154         -0.93468093        0.004961
      1155         -0.93468105        0.004961
      1156         -0.93468321        0.004961
      1157         -0.93468518        0.004593
      1158         -0.93468576        0.004593
      1159         -0.93468721        0.004593
      1160         -0.93468784        0.004593
      1161         -0.93468813        0.004593
      1162         -0.93468981        0.004593
      1163         -0.93469088        0.004593
      1164         -0.93469182        0.004593
      1165         -0.93469208        0.004593
      1166         -0.93469260        0.004593
      1167         -0.93469348        0.004593
      1168         -0.93469407        0.004593
      1169         -0.93469424        0.004593
      1170         -0.93469447        0.004593
      1171         -0.93469541        0.004593
      1172         -0.93469570        0.004593
      1173         -0.93469688        0.004593
      1174         -0.93469745        0.004593
      1175         -0.93469789        0.004593
      1176         -0.93469952        0.004593
      1177         -0.93469970        0.004593
      1178         -0.93469990        0.004593
      1179         -0.93470243        0.004593
      1180         -0.93470387        0.004593
      1181         -0.93470496        0.004593
      1182         -0.93470512        0.004593
      1183         -0.93470522        0.004593
      1184         -0.93470565        0.004593
      1185         -0.93470582        0.004593
      1186         -0.93470627        0.004593
      1187         -0.93470703        0.004593
      1188         -0.93470973        0.004593
      1189         -0.93471033        0.004593
      1190         -0.93471056        0.004593
      1191         -0.93471122        0.004593
      1192         -0.93471244        0.004593
      1193         -0.93471331        0.004593
      1194         -0.93471404        0.004593
      1195         -0.93471518        0.004593
      1196         -0.93471621        0.004593
      1197         -0.93471662        0.004593
      1198         -0.93471722        0.004593
      1199         -0.93471765        0.004593
      1200         -0.93472176        0.004593
      1201         -0.93472208        0.004593
      1202         -0.93472390        0.004593
      1203         -0.93472468        0.004593
      1204         -0.93472498        0.004593
      1205         -0.93472521        0.004593
      1206         -0.93472578        0.004593
      1207         -0.93472606        0.004593
      1208         -0.93472629        0.004593
      1209         -0.93472791        0.004593
      1210         -0.93472798        0.004593
      1211         -0.93472859        0.004593
      1212         -0.93473119        0.004593
      1213         -0.93473198        0.004593
      1214         -0.93473209        0.004593
      1215         -0.93473235        0.004593
      1216         -0.93473243        0.004593
      1217         -0.93473277        0.004593
      1218         -0.93473318        0.004593
      1219         -0.93473476        0.004593
      1220         -0.93473517        0.004593
      1221         -0.93473706        0.004593
      1222         -0.93473765        0.004593
      1223         -0.93473954        0.004593
      1224         -0.93474008        0.004593
      1225         -0.93474096        0.004593
      1226         -0.93474202        0.004593
      1227         -0.93474229        0.004593
      1228         -0.93474264        0.004593
      1229         -0.93474300        0.004593
      1230         -0.93474522        0.004593
      1231         -0.93474531        0.004593
      1232         -0.93474672        0.004593
      1233         -0.93474826        0.004593
      1234         -0.93474904        0.004593
      1235         -0.93474980        0.004593
      1236         -0.93475006        0.004593
      1237         -0.93475052        0.004593
      1238         -0.93475107        0.004593
      1239         -0.93475223        0.004593
      1240         -0.93475333        0.004593
      1241         -0.93475355        0.004593
      1242         -0.93475451        0.004593
      1243         -0.93475693        0.004593
      1244         -0.93475812        0.004593
      1245         -0.93475922        0.004593
      1246         -0.93475959        0.004593
      1247         -0.93476032        0.004593
      1248         -0.93476137        0.004593
      1249         -0.93476149        0.004593
      1250         -0.93476214        0.004593
      1251         -0.93476284        0.004593
      1252         -0.93476420        0.004593
      1253         -0.93476594        0.004593
      1254         -0.93476773        0.004593
      1255         -0.93476830        0.004593
      1256         -0.93476957        0.004593
      1257         -0.93477013        0.004593
      1258         -0.93477043        0.004593
      1259         -0.93477200        0.004593
      1260         -0.93477323        0.004593
      1261         -0.93477439        0.004593
      1262         -0.93477483        0.004593
      1263         -0.93477643        0.004593
      1264         -0.93477829        0.004593
      1265         -0.93478026        0.004593
      1266         -0.93478059        0.004593
      1267         -0.93478077        0.004593
      1268         -0.93478150        0.004593
      1269         -0.93478200        0.004593
      1270         -0.93478373        0.004593
      1271         -0.93478408        0.004593
      1272         -0.93478520        0.004593
      1273         -0.93478655        0.004593
      1274         -0.93478658        0.004593
      1275         -0.93478672        0.004593
      1276         -0.93478677        0.004593
      1277         -0.93478767        0.004593
      1278         -0.93478830        0.004593
      1279         -0.93478952        0.004593
      1280         -0.93479005        0.004593
      1281         -0.93479065        0.004593
      1282         -0.93479267        0.004593
      1283         -0.93479337        0.004593
      1284         -0.93479513        0.004593
      1285         -0.93479549        0.004593
      1286         -0.93479785        0.004593
      1287         -0.93479936        0.004593
      1288         -0.93480051        0.004593
      1289         -0.93480067        0.004593
      1290         -0.93480093        0.004593
      1291         -0.93480353        0.004593
      1292         -0.93480430        0.004593
      1293         -0.93480651        0.004593
      1294         -0.93480694        0.004593
      1295         -0.93480896        0.004593
      1296         -0.93480939        0.004593
      1297         -0.93480980        0.004593
      1298         -0.93481144        0.004593
      1299         -0.93481280        0.004593
      1300         -0.93481288        0.004593
      1301         -0.93481292        0.004593
      1302         -0.93481303        0.004593
      1303         -0.93481307        0.004593
      1304         -0.93481429        0.004593
      1305         -0.93481469        0.004593
      1306         -0.93481489        0.004593
      1307         -0.93481693        0.004593
      1308         -0.93481731        0.004593
      1309         -0.93481833        0.004593
      1310         -0.93481900        0.004593
      1311         -0.93481968        0.004593
      1312         -0.93481969        0.004593
      1313         -0.93481978        0.004593
      1314         -0.93482003        0.004593
      1315         -0.93482165        0.004593
      1316         -0.93482228        0.004593
      1317         -0.93482312        0.004593
      1318         -0.93482559        0.004593
      1319         -0.93482680        0.004593
      1320         -0.93482697        0.004593
      1321         -0.93482875        0.004593
      1322         -0.93483002        0.004593
      1323         -0.93483018        0.004593
      1324         -0.93483030        0.004593
      1325         -0.93483084        0.004593
      1326         -0.93483105        0.004593
      1327         -0.93483180        0.004593
      1328         -0.93483193        0.004593
      1329         -0.93483288        0.004593
      1330         -0.93483423        0.004593
      1331         -0.93483574        0.004593
      1332         -0.93483848        0.004593
      1333         -0.93484017        0.004593
      1334         -0.93484069        0.004593
      1335         -0.93484191        0.004593
      1336         -0.93484194        0.004593
      1337         -0.93484216        0.004593
      1338         -0.93484230        0.004593
      1339         -0.93484373        0.004593
      1340         -0.93484425        0.004593
      1341         -0.93484454        0.004593
      1342         -0.93484649        0.004593
      1343         -0.93484800        0.004593
      1344         -0.93484830        0.004593
      1345         -0.93485011        0.004593
      1346         -0.93485047        0.004593
      1347         -0.93485058        0.004593
      1348         -0.93485069        0.004593
      1349         -0.93485221        0.004593
      1350         -0.93485311        0.004593
      1351         -0.93485515        0.004593
      1352         -0.93485610        0.004593
      1353         -0.93485778        0.004593
      1354         -0.93485899        0.004593
      1355         -0.93486134        0.004593
      1356         -0.93486137        0.004593
      1357         -0.93486298        0.004593
      1358         -0.93486348        0.004593
      1359         -0.93486360        0.004593
      1360         -0.93486405        0.004593
      1361         -0.93486574        0.004593
      1362         -0.93486699        0.004593
      1363         -0.93486816        0.004593
      1364         -0.93486942        0.004593
      1365         -0.93486958        0.004593
      1366         -0.93487007        0.004593
      1367         -0.93487046        0.004593
      1368         -0.93487147        0.004593
      1369         -0.93487252        0.004593
      1370         -0.93487401        0.004593
      1371         -0.93487408        0.004593
      1372         -0.93487410        0.004593
      1373         -0.93487470        0.004593
      1374         -0.93487622        0.004593
      1375         -0.93487714        0.004593
      1376         -0.93487782        0.004593
      1377         -0.93487819        0.004593
      1378         -0.93487835        0.004593
      1379         -0.93487896        0.004593
      1380         -0.93488036        0.004593
      1381         -0.93488076        0.004593
      1382         -0.93488319        0.004593
      1383         -0.93488325        0.004593
      1384         -0.93488415        0.004593
      1385         -0.93488418        0.004593
      1386         -0.93488425        0.004593
      1387         -0.93488447        0.004593
      1388         -0.93488457        0.004593
      1389         -0.93488513        0.004593
      1390         -0.93488628        0.004593
      1391         -0.93488839        0.004593
      1392         -0.93488876        0.004593
      1393         -0.93489019        0.004593
      1394         -0.93489061        0.004593
      1395         -0.93489270        0.004593
      1396         -0.93489284        0.004593
      1397         -0.93489319        0.004593
      1398         -0.93489455        0.004593
      1399         -0.93489500        0.004593
      1400         -0.93489511        0.004593
      1401         -0.93489612        0.004593
      1402         -0.93489804        0.004593
      1403         -0.93489807        0.004593
      1404         -0.93489838        0.004593
      1405         -0.93489954        0.004593
      1406         -0.93490109        0.004593
      1407         -0.93490166        0.004593
      1408         -0.93490195        0.004593
      1409         -0.93490252        0.004593
      1410         -0.93490261        0.004593
      1411         -0.93490358        0.004593
      1412         -0.93490507        0.004593
      1413         -0.93490697        0.004593
      1414         -0.93490834        0.004593
      1415         -0.93490925        0.004593
      1416         -0.93490966        0.004593
      1417         -0.93490988        0.004593
      1418         -0.93491058        0.004593
      1419         -0.93491120        0.004593
      1420         -0.93491153        0.004593
      1421         -0.93491171        0.004593
      1422         -0.93491243        0.004593
      1423         -0.93491348        0.004593
      1424         -0.93491567        0.004593
      1425         -0.93491593        0.004593
      1426         -0.93491693        0.004593
      1427         -0.93491764        0.004593
      1428         -0.93491830        0.004593
      1429         -0.93491947        0.004593
      1430         -0.93491984        0.004593
      1431         -0.93492032        0.004593
      1432         -0.93492075        0.004593
      1433         -0.93492101        0.004593
      1434         -0.93492110        0.004593
      1435         -0.93492287        0.004593
      1436         -0.93492292        0.004593
      1437         -0.93492412        0.004593
      1438         -0.93492450        0.004593
      1439         -0.93492454        0.004593
      1440         -0.93492472        0.004593
      1441         -0.93492508        0.004593
      1442         -0.93492641        0.004593
      1443         -0.93492665        0.004593
      1444         -0.93492666        0.004593
      1445         -0.93492694        0.004593
      1446         -0.93492711        0.004593
      1447         -0.93492840        0.004593
      1448         -0.93492876        0.004593
      1449         -0.93492949        0.004593
      1450         -0.93493011        0.004593
      1451         -0.93493092        0.004593
      1452         -0.93493138        0.004593
      1453         -0.93493157        0.004593
      1454         -0.93493414        0.004593
      1455         -0.93493433        0.004593
      1456         -0.93493505        0.004593
      1457         -0.93493592        0.004593
      1458         -0.93493607        0.004593
      1459         -0.93493663        0.004593
      1460         -0.93493713        0.004593
      1461         -0.93493789        0.004593
      1462         -0.93493839        0.004593
      1463         -0.93493948        0.004593
      1464         -0.93494067        0.004593
      1465         -0.93494146        0.004593
      1466         -0.93494151        0.004593
      1467         -0.93494210        0.004593
      1468         -0.93494213        0.004593
      1469         -0.93494296        0.004593
      1470         -0.93494300        0.004593
      1471         -0.93494402        0.004593
      1472         -0.93494542        0.004593
      1473         -0.93494602        0.004593
      1474         -0.93494694        0.004593
      1475         -0.93494770        0.004593
      1476         -0.93494798        0.004593
      1477         -0.93494830        0.004593
      1478         -0.93494863        0.004593
      1479         -0.93495038        0.004593
      1480         -0.93495047        0.004593
      1481         -0.93495114        0.004593
      1482         -0.93495181        0.004593
      1483         -0.93495321        0.004593
      1484         -0.93495330        0.004593
      1485         -0.93495342        0.004593
      1486         -0.93495412        0.004593
      1487         -0.93495741        0.004593
      1488         -0.93495794        0.004593
      1489         -0.93495857        0.004593
      1490         -0.93495930        0.004593
      1491         -0.93495949        0.004593
      1492         -0.93495963        0.004593
      1493         -0.93495966        0.004593
      1494         -0.93495967        0.004593
      1495         -0.93496097        0.004593
      1496         -0.93496159        0.004593
      1497         -0.93496246        0.004593
      1498         -0.93496423        0.004593
      1499         -0.93496456        0.004593
      1500         -0.93496473        0.004593
      1501         -0.93496644        0.004593
      1502         -0.93496653        0.004593
      1503         -0.93496674        0.004593
      1504         -0.93496675        0.004593
      1505         -0.93496796        0.004593
      1506         -0.93496816        0.004593
      1507         -0.93496901        0.004593
      1508         -0.93497090        0.004593
      1509         -0.93497311        0.004593
      1510         -0.93497407        0.004593
      1511         -0.93497502        0.004593
      1512         -0.93497529        0.004593
      1513         -0.93497552        0.004593
      1514         -0.93497569        0.004593
      1515         -0.93497680        0.004593
      1516         -0.93497909        0.004593
      1517         -0.93498001        0.004593
      1518         -0.93498014        0.004593
      1519         -0.93498083        0.004593
      1520         -0.93498094        0.004593
      1521         -0.93498302        0.004593
      1522         -0.93498315        0.004593
      1523         -0.93498367        0.004593
      1524         -0.93498400        0.004593
      1525         -0.93498403        0.004593
      1526         -0.93498557        0.004593
      1527         -0.93498641        0.004593
      1528         -0.93498662        0.004593
      1529         -0.93498821        0.004593
      1530         -0.93498887        0.004593
      1531         -0.93498892        0.004593
      1532         -0.93498906        0.004593
      1533         -0.93498993        0.004593
      1534         -0.93499020        0.004593
      1535         -0.93499085        0.004593
      1536         -0.93499148        0.004593
      1537         -0.93499273        0.004593
      1538         -0.93499319        0.004593
      1539         -0.93499354        0.004593
      1540         -0.93499361        0.004593
      1541         -0.93499377        0.004593
      1542         -0.93499426        0.004593
      1543         -0.93499542        0.004593
      1544         -0.93499770        0.004593
      1545         -0.93499841        0.004593
      1546         -0.93499856        0.004593
      1547         -0.93499891        0.004593
      1548         -0.93500087        0.004593
      1549         -0.93500170        0.004593
      1550         -0.93500235        0.004593
      1551         -0.93500276        0.004593
[...]
       ----------- ----------- ----------- -----------
   1       0.00000    -0.00000     0.00000     0.00000
   2       0.00000    -0.00000     0.00000     0.00000
   3       0.00000    -0.00000     0.00000     0.00000
   4      -0.00000    -0.00000     0.00000     0.00000
   5       0.00000    -0.00000     0.00000     0.00000
   6       0.00000    -0.00000     0.00000     0.00000
   7       0.00000    -0.00000    -0.00000     0.00000
   8      -0.00000     0.00000    -0.00000    -0.00000
   9       0.00000    -0.00000    -0.00000     0.00000
  10       0.00000    -0.00000     0.00000     0.00000

                  WFN1 Final alpha Correlation Function Analysis
                  ----------------------------------------------


 global array: Ca[1:10,1:10],  handle: -981 

                     1                       2                       3                       4                       5                       6  
       ----------------------- ----------------------- ----------------------- ----------------------- ----------------------- -----------------------
   1      -0.03868,    0.95088    -0.00730,   -0.29560    -0.02459,    0.00146    -0.04657,    0.03485     0.03484,   -0.01145    -0.00095,    0.01600
   2       0.21846,   -0.19758     0.66231,   -0.68266    -0.04470,    0.03416     0.00411,   -0.01146    -0.00466,    0.02052    -0.00135,   -0.01304
   3       0.01969,    0.04357     0.00920,   -0.04163     0.52191,   -0.50461     0.48637,   -0.46238    -0.05603,    0.02787    -0.03438,   -0.04545
   4       0.00239,   -0.03892     0.01580,   -0.03052     0.31747,   -0.58920    -0.34716,    0.64521    -0.05316,    0.04535    -0.02548,    0.01357
   5      -0.01587,    0.01901     0.01592,   -0.00138    -0.02177,    0.07918     0.06000,    0.04165    -0.45861,   -0.00613    -0.43942,   -0.05599
   6       0.02501,   -0.00481     0.02297,    0.02530     0.02621,    0.05094    -0.01403,    0.03330     0.03666,    0.38289     0.13130,    0.54858
   7      -0.00032,    0.02535     0.02435,    0.03073     0.05956,   -0.03050    -0.00699,   -0.00855     0.35130,   -0.24051     0.08299,   -0.04861
   8       0.02462,    0.00024    -0.01136,   -0.00754    -0.02021,    0.00385     0.00580,    0.02693     0.23675,    0.37337    -0.24680,   -0.36107
   9       0.01224,    0.02304    -0.01724,    0.02109    -0.04507,    0.03882    -0.02730,   -0.00242    -0.17094,    0.40221     0.20168,   -0.40374
  10       0.02123,   -0.01070     0.03145,   -0.00274     0.01565,   -0.05058    -0.00568,    0.03178     0.23108,   -0.09998    -0.24563,    0.12860

                     7                       8                       9                      10  
       ----------------------- ----------------------- ----------------------- -----------------------
   1       0.00660,   -0.01306    -0.00098,   -0.01222    -0.02542,    0.01380    -0.00748,   -0.00672
   2      -0.00871,    0.00301     0.03526,   -0.02654     0.04018,    0.02536    -0.00106,    0.01826
   3      -0.00018,   -0.05792     0.01942,   -0.08057    -0.01502,    0.00266    -0.00855,   -0.02905
   4      -0.04177,    0.02676     0.02068,   -0.00668     0.00183,    0.04540    -0.04275,   -0.00150
   5      -0.54918,   -0.04029    -0.51996,   -0.05125     0.03077,    0.03390    -0.00822,   -0.04572
   6      -0.05620,   -0.30621    -0.10078,   -0.49525    -0.09508,   -0.40708     0.01689,    0.00871
   7      -0.33340,    0.17154    -0.02641,   -0.02340     0.68397,   -0.43904    -0.01579,    0.00814
   8      -0.27238,   -0.39753     0.28191,    0.37812    -0.20733,   -0.33543     0.02128,    0.02575
   9      -0.12224,    0.37825     0.19960,   -0.35482     0.02686,   -0.00714     0.18360,   -0.49130
  10       0.22848,   -0.10351    -0.23545,    0.13142     0.02416,   -0.01835     0.73152,   -0.42738

                   WFN1 Final beta Correlation Function Analysis
                   ---------------------------------------------


 global array: Cb[1:10,1:10],  handle: -980 

                     1                       2                       3                       4                       5                       6  
       ----------------------- ----------------------- ----------------------- ----------------------- ----------------------- -----------------------
   1      -0.03868,    0.95088    -0.00730,   -0.29560    -0.02459,    0.00146    -0.04657,    0.03485     0.03484,   -0.01145    -0.00095,    0.01600
   2       0.21846,   -0.19758     0.66231,   -0.68266    -0.04470,    0.03416     0.00411,   -0.01146    -0.00466,    0.02052    -0.00135,   -0.01304
   3       0.01969,    0.04357     0.00920,   -0.04163     0.52191,   -0.50461     0.48637,   -0.46238    -0.05603,    0.02787    -0.03438,   -0.04545
   4       0.00239,   -0.03892     0.01580,   -0.03052     0.31747,   -0.58920    -0.34716,    0.64521    -0.05316,    0.04535    -0.02548,    0.01357
   5      -0.01587,    0.01901     0.01592,   -0.00138    -0.02177,    0.07918     0.06000,    0.04165    -0.45861,   -0.00613    -0.43942,   -0.05599
   6       0.02501,   -0.00481     0.02297,    0.02530     0.02621,    0.05094    -0.01403,    0.03330     0.03666,    0.38289     0.13130,    0.54858
   7      -0.00032,    0.02535     0.02435,    0.03073     0.05956,   -0.03050    -0.00699,   -0.00855     0.35130,   -0.24051     0.08299,   -0.04861
   8       0.02462,    0.00024    -0.01136,   -0.00754    -0.02021,    0.00385     0.00580,    0.02693     0.23675,    0.37337    -0.24680,   -0.36107
   9       0.01224,    0.02304    -0.01724,    0.02109    -0.04507,    0.03882    -0.02730,   -0.00242    -0.17094,    0.40221     0.20168,   -0.40374
  10       0.02123,   -0.01070     0.03145,   -0.00274     0.01565,   -0.05058    -0.00568,    0.03178     0.23108,   -0.09998    -0.24563,    0.12860

                     7                       8                       9                      10  
       ----------------------- ----------------------- ----------------------- -----------------------
   1       0.00660,   -0.01306    -0.00098,   -0.01222    -0.02542,    0.01380    -0.00748,   -0.00672
   2      -0.00871,    0.00301     0.03526,   -0.02654     0.04018,    0.02536    -0.00106,    0.01826
   3      -0.00018,   -0.05792     0.01942,   -0.08057    -0.01502,    0.00266    -0.00855,   -0.02905
   4      -0.04177,    0.02676     0.02068,   -0.00668     0.00183,    0.04540    -0.04275,   -0.00150
   5      -0.54918,   -0.04029    -0.51996,   -0.05125     0.03077,    0.03390    -0.00822,   -0.04572
   6      -0.05620,   -0.30621    -0.10078,   -0.49525    -0.09508,   -0.40708     0.01689,    0.00871
   7      -0.33340,    0.17154    -0.02641,   -0.02340     0.68397,   -0.43904    -0.01579,    0.00814
   8      -0.27238,   -0.39753     0.28191,    0.37812    -0.20733,   -0.33543     0.02128,    0.02575
   9      -0.12224,    0.37825     0.19960,   -0.35482     0.02686,   -0.00714     0.18360,   -0.49130
  10       0.22848,   -0.10351    -0.23545,    0.13142     0.02416,   -0.01835     0.73152,   -0.42738

                     WFN1 Final Alpha Natural Orbital Analysis
                     -----------------------------------------

 Vector    1  Occ=9.056728D-01  E= 0.000000D+00
              MO Center= -4.4D-06, -6.3D-06,  3.9D-05, r^2= 1.8D+00
   Bfn.  Coefficient  Atom+Function         Bfn.  Coefficient  Atom+Function  
  ----- ------------  ---------------      ----- ------------  ---------------
     2      0.469214  1 H  s                  7      0.469188  2 H  s          
     1      0.224082  1 H  s                  6      0.224143  2 H  s          

 Vector    2  Occ=8.676393D-02  E= 0.000000D+00
              MO Center=  7.5D-05,  6.3D-05, -3.5D-05, r^2= 2.0D+00
   Bfn.  Coefficient  Atom+Function         Bfn.  Coefficient  Atom+Function  
  ----- ------------  ---------------      ----- ------------  ---------------
     2     -0.553018  1 H  s                  7      0.553084  2 H  s          
     1     -0.312492  1 H  s                  6      0.312366  2 H  s          

 Vector    3  Occ=2.285683D-03  E= 0.000000D+00
              MO Center=  1.5D-03,  2.5D-03,  9.1D-04, r^2= 1.9D+00
   Bfn.  Coefficient  Atom+Function         Bfn.  Coefficient  Atom+Function  
  ----- ------------  ---------------      ----- ------------  ---------------
     1     -0.904761  1 H  s                  6     -0.904115  2 H  s          
     2      0.665529  1 H  s                  7      0.665096  2 H  s          
    10     -0.054992  2 H  pz                 5      0.050426  1 H  pz         

 Vector    4  Occ=1.520747D-03  E= 0.000000D+00
              MO Center=  1.3D-03, -2.4D-04, -3.8D-04, r^2= 2.7D+00
   Bfn.  Coefficient  Atom+Function         Bfn.  Coefficient  Atom+Function  
  ----- ------------  ---------------      ----- ------------  ---------------
     2      1.015456  1 H  s                  7     -1.015438  2 H  s          
     1     -0.909607  1 H  s                  6      0.909964  2 H  s          

 Vector    5  Occ=6.133519D-04  E= 0.000000D+00
              MO Center=  2.7D-05,  9.8D-05, -1.6D-03, r^2= 1.4D+00
   Bfn.  Coefficient  Atom+Function         Bfn.  Coefficient  Atom+Function  
  ----- ------------  ---------------      ----- ------------  ---------------
     5     -0.706261  1 H  pz                10      0.704279  2 H  pz         
     7      0.124256  2 H  s                  2      0.115989  1 H  s          
     6     -0.113652  2 H  s                  1     -0.106345  1 H  s          

 Vector    6  Occ=6.487013D-04  E= 0.000000D+00
              MO Center= -2.0D-03, -4.4D-04, -1.2D-04, r^2= 1.3D+00
   Bfn.  Coefficient  Atom+Function         Bfn.  Coefficient  Atom+Function  
  ----- ------------  ---------------      ----- ------------  ---------------
     3      0.689815  1 H  px                 8      0.690192  2 H  px         
     4      0.154403  1 H  py                 9      0.152285  2 H  py         

 Vector    7  Occ=6.428781D-04  E= 0.000000D+00
              MO Center=  4.9D-04, -2.3D-03,  1.2D-03, r^2= 1.3D+00
   Bfn.  Coefficient  Atom+Function         Bfn.  Coefficient  Atom+Function  
  ----- ------------  ---------------      ----- ------------  ---------------
     9     -0.695650  2 H  py                 4     -0.683387  1 H  py         
     3      0.178587  1 H  px                 8      0.128106  2 H  px         

 Vector    8  Occ=6.062869D-04  E= 0.000000D+00
              MO Center= -2.2D-04,  1.0D-03, -1.2D-03, r^2= 1.3D+00
   Bfn.  Coefficient  Atom+Function         Bfn.  Coefficient  Atom+Function  
  ----- ------------  ---------------      ----- ------------  ---------------
     4     -0.690319  1 H  py                 9      0.690083  2 H  py         
     3      0.154405  1 H  px                 8     -0.152450  2 H  px         

 Vector    9  Occ=6.805500D-04  E= 0.000000D+00
              MO Center= -1.0D-03, -1.6D-04,  2.5D-04, r^2= 1.3D+00
   Bfn.  Coefficient  Atom+Function         Bfn.  Coefficient  Atom+Function  
  ----- ------------  ---------------      ----- ------------  ---------------
     8     -0.695493  2 H  px                 3      0.684187  1 H  px         
     4      0.178483  1 H  py                 9     -0.127887  2 H  py         

 Vector   10  Occ=5.650748D-04  E= 0.000000D+00
              MO Center= -1.5D-04, -5.9D-04,  9.6D-04, r^2= 1.3D+00
   Bfn.  Coefficient  Atom+Function         Bfn.  Coefficient  Atom+Function  
  ----- ------------  ---------------      ----- ------------  ---------------
     5      0.712389  1 H  pz                10      0.714430  2 H  pz         
     2      0.158276  1 H  s                  7     -0.153510  2 H  s          
     1     -0.087564  1 H  s                  6      0.081258  2 H  s          


                     WFN1 Final Beta Natural Orbital Analysis
                     ----------------------------------------

 Vector    1  Occ=9.056728D-01  E= 0.000000D+00
              MO Center= -4.4D-06, -6.3D-06,  3.9D-05, r^2= 1.8D+00
   Bfn.  Coefficient  Atom+Function         Bfn.  Coefficient  Atom+Function  
  ----- ------------  ---------------      ----- ------------  ---------------
     2      0.469214  1 H  s                  7      0.469188  2 H  s          
     1      0.224082  1 H  s                  6      0.224143  2 H  s          

 Vector    2  Occ=8.676393D-02  E= 0.000000D+00
              MO Center=  7.5D-05,  6.3D-05, -3.5D-05, r^2= 2.0D+00
   Bfn.  Coefficient  Atom+Function         Bfn.  Coefficient  Atom+Function  
  ----- ------------  ---------------      ----- ------------  ---------------
     2     -0.553018  1 H  s                  7      0.553084  2 H  s          
     1     -0.312492  1 H  s                  6      0.312366  2 H  s          

 Vector    3  Occ=2.285683D-03  E= 0.000000D+00
              MO Center=  1.5D-03,  2.5D-03,  9.1D-04, r^2= 1.9D+00
   Bfn.  Coefficient  Atom+Function         Bfn.  Coefficient  Atom+Function  
  ----- ------------  ---------------      ----- ------------  ---------------
     1     -0.904761  1 H  s                  6     -0.904115  2 H  s          
     2      0.665529  1 H  s                  7      0.665096  2 H  s          
    10     -0.054992  2 H  pz                 5      0.050426  1 H  pz         

 Vector    4  Occ=1.520747D-03  E= 0.000000D+00
              MO Center=  1.3D-03, -2.4D-04, -3.8D-04, r^2= 2.7D+00
   Bfn.  Coefficient  Atom+Function         Bfn.  Coefficient  Atom+Function  
  ----- ------------  ---------------      ----- ------------  ---------------
     2      1.015456  1 H  s                  7     -1.015438  2 H  s          
     1     -0.909607  1 H  s                  6      0.909964  2 H  s          

 Vector    5  Occ=6.133519D-04  E= 0.000000D+00
              MO Center=  2.7D-05,  9.8D-05, -1.6D-03, r^2= 1.4D+00
   Bfn.  Coefficient  Atom+Function         Bfn.  Coefficient  Atom+Function  
  ----- ------------  ---------------      ----- ------------  ---------------
     5     -0.706261  1 H  pz                10      0.704279  2 H  pz         
     7      0.124256  2 H  s                  2      0.115989  1 H  s          
     6     -0.113652  2 H  s                  1     -0.106345  1 H  s          

 Vector    6  Occ=6.487013D-04  E= 0.000000D+00
              MO Center= -2.0D-03, -4.4D-04, -1.2D-04, r^2= 1.3D+00
   Bfn.  Coefficient  Atom+Function         Bfn.  Coefficient  Atom+Function  
  ----- ------------  ---------------      ----- ------------  ---------------
     3      0.689815  1 H  px                 8      0.690192  2 H  px         
     4      0.154403  1 H  py                 9      0.152285  2 H  py         

 Vector    7  Occ=6.428781D-04  E= 0.000000D+00
              MO Center=  4.9D-04, -2.3D-03,  1.2D-03, r^2= 1.3D+00
   Bfn.  Coefficient  Atom+Function         Bfn.  Coefficient  Atom+Function  
  ----- ------------  ---------------      ----- ------------  ---------------
     9     -0.695650  2 H  py                 4     -0.683387  1 H  py         
     3      0.178587  1 H  px                 8      0.128106  2 H  px         

 Vector    8  Occ=6.062869D-04  E= 0.000000D+00
              MO Center= -2.2D-04,  1.0D-03, -1.2D-03, r^2= 1.3D+00
   Bfn.  Coefficient  Atom+Function         Bfn.  Coefficient  Atom+Function  
  ----- ------------  ---------------      ----- ------------  ---------------
     4     -0.690319  1 H  py                 9      0.690083  2 H  py         
     3      0.154405  1 H  px                 8     -0.152450  2 H  px         

 Vector    9  Occ=6.805500D-04  E= 0.000000D+00
              MO Center= -1.0D-03, -1.6D-04,  2.5D-04, r^2= 1.3D+00
   Bfn.  Coefficient  Atom+Function         Bfn.  Coefficient  Atom+Function  
  ----- ------------  ---------------      ----- ------------  ---------------
     8     -0.695493  2 H  px                 3      0.684187  1 H  px         
     4      0.178483  1 H  py                 9     -0.127887  2 H  py         

 Vector   10  Occ=5.650748D-04  E= 0.000000D+00
              MO Center= -1.5D-04, -5.9D-04,  9.6D-04, r^2= 1.3D+00
   Bfn.  Coefficient  Atom+Function         Bfn.  Coefficient  Atom+Function  
  ----- ------------  ---------------      ----- ------------  ---------------
     5      0.712389  1 H  pz                10      0.714430  2 H  pz         
     2      0.158276  1 H  s                  7     -0.153510  2 H  s          
     1     -0.087564  1 H  s                  6      0.081258  2 H  s          


 Task  times  cpu:     2916.8s     wall:     3395.8s
 Summary of allocated global arrays
-----------------------------------
  No active global arrays



                         GA Statistics for process    0
                         ------------------------------

       create   destroy   get      put      acc     scatter   gather  read&inc
calls:   44       44     1.05e+09 4.52e+05 6.00e+05    0        0       11     
number of processes/call 1.00e+00 1.00e+00 1.00e+00 0.00e+00 0.00e+00
bytes total:             8.42e+11 4.80e+08 6.00e+08 0.00e+00 0.00e+00 8.80e+01
bytes remote:            0.00e+00 0.00e+00 0.00e+00 0.00e+00 0.00e+00 0.00e+00
Max memory consumed for GA by this process: 268000 bytes
MA_summarize_allocated_blocks: starting scan ...
MA_summarize_allocated_blocks: scan completed: 0 heap blocks, 0 stack blocks
MA usage statistics:

	allocation statistics:
					      heap	     stack
					      ----	     -----
	current number of blocks	         0	         0
	maximum number of blocks	        19	        17
	current total bytes		         0	         0
	maximum total bytes		   3205432	  22508664
	maximum total K-bytes		      3206	     22509
	maximum total M-bytes		         4	        23


                                NWChem Input Module
                                -------------------





                                     CITATION
                                     --------
                Please cite the following reference when publishing
                           results obtained with NWChem:

                 M. Valiev, E.J. Bylaska, N. Govind, K. Kowalski,
              T.P. Straatsma, H.J.J. van Dam, D. Wang, J. Nieplocha,
                        E. Apra, T.L. Windus, W.A. de Jong
                 "NWChem: a comprehensive and scalable open-source
                  solution for large scale molecular simulations"
                      Comput. Phys. Commun. 181, 1477 (2010)
                           doi:10.1016/j.cpc.2010.04.018

                                      AUTHORS
                                      -------
          E. Apra, E. J. Bylaska, W. A. de Jong, N. Govind, K. Kowalski,
       T. P. Straatsma, M. Valiev, H. J. J. van Dam, D. Wang, T. L. Windus,
        J. Hammond, J. Autschbach, K. Bhaskaran-Nair, J. Brabec, K. Lopata,
    S. A. Fischer, S. Krishnamoorthy, M. Jacquelin, W. Ma, M. Klemm, O. Villa,
      Y. Chen, V. Anisimov, F. Aquino, S. Hirata, M. T. Hackler, V. Konjkov,
      T. Risthaus, M. Malagoli, A. Marenich, A. Otero-de-la-Roza, J. Mullin,
        P. Nichols, R. Peverati, J. Pittner, Y. Zhao, P.-D. Fan, A. Fonari,
       M. Williamson, R. J. Harrison, J. R. Rehr, M. Dupuis, D. Silverstein,
    D. M. A. Smith, J. Nieplocha, V. Tipparaju, M. Krishnan, B. E. Van Kuiken,
        A. Vazquez-Mayagoitia, L. Jensen, M. Swart, Q. Wu, T. Van Voorhis,
     A. A. Auer, M. Nooijen, L. D. Crosby, E. Brown, G. Cisneros, G. I. Fann,
   H. Fruchtl, J. Garza, K. Hirao, R. A. Kendall, J. A. Nichols, K. Tsemekhman,
    K. Wolinski, J. Anchell, D. E. Bernholdt, P. Borowski, T. Clark, D. Clerc,
   H. Dachsel, M. J. O. Deegan, K. Dyall, D. Elwood, E. Glendening, M. Gutowski,
   A. C. Hess, J. Jaffe, B. G. Johnson, J. Ju, R. Kobayashi, R. Kutteh, Z. Lin,
   R. Littlefield, X. Long, B. Meng, T. Nakajima, S. Niu, L. Pollack, M. Rosing,
   K. Glaesemann, G. Sandrone, M. Stave, H. Taylor, G. Thomas, J. H. van Lenthe,
                               A. T. Wong, Z. Zhang.

 Total times  cpu:     2916.9s     wall:     3395.8s
