 argument  1 = input-wf.nw



============================== echo of input deck ==============================
echo
start wfn1_dat
geometry units au noautoz
  H 0 0 -1.49434600000000000000
  H 0 0  1.49434600000000000000
  symmetry cs
end
basis
  H library 6-31g**
end
set wfn1:input_vectors "atomic"
set wfn1:solver "monte-carlo"
set wfn1:print_error F
set wfn1:t_initial 0.1
#set wfn1:corr_expr "wfn1_mx"
set wfn1:corr_expr "wfn1c"
set wfn1:t_bath 0.0
set wfn1:maxit  20000
task wfn1 energy
================================================================================


                                         
                                         


              Northwest Computational Chemistry Package (NWChem) 6.8
              ------------------------------------------------------


                    Environmental Molecular Sciences Laboratory
                       Pacific Northwest National Laboratory
                                Richland, WA 99352

                              Copyright (c) 1994-2015
                       Pacific Northwest National Laboratory
                            Battelle Memorial Institute

             NWChem is an open-source computational chemistry package
                        distributed under the terms of the
                      Educational Community License (ECL) 2.0
             A copy of the license is included with this distribution
                              in the LICENSE.TXT file

                                  ACKNOWLEDGMENT
                                  --------------

            This software and its documentation were developed at the
            EMSL at Pacific Northwest National Laboratory, a multiprogram
            national laboratory, operated for the U.S. Department of Energy
            by Battelle under Contract Number DE-AC05-76RL01830. Support
            for this work was provided by the Department of Energy Office
            of Biological and Environmental Research, Office of Basic
            Energy Sciences, and the Office of Advanced Scientific Computing.


           Job information
           ---------------

    hostname        = erato
    program         = ../../../bin/LINUX64/nwchem
    date            = Mon Mar  1 15:22:56 2021

    compiled        = Sun_Feb_28_18:02:42_2021
    source          = /home/hvandam/nwchem-1-wfn1
    nwchem branch   = Development
    nwchem revision = nwchem_on_git-124-gad72d19fff205e319ffbbf2bca37a04ded6ad57b
    ga revision     = nwchem_on_git-124-gad72d19
    use scalapack   = F
    input           = input-wf.nw
    prefix          = wfn1_dat.
    data base       = ./wfn1_dat.db
    status          = startup
    nproc           =        1
    time left       =     -1s



           Memory information
           ------------------

    heap     =   13107198 doubles =    100.0 Mbytes
    stack    =   13107195 doubles =    100.0 Mbytes
    global   =   26214400 doubles =    200.0 Mbytes (distinct from heap & stack)
    total    =   52428793 doubles =    400.0 Mbytes
    verify   = yes
    hardfail = no 


           Directory information
           ---------------------

  0 permanent = .
  0 scratch   = .




                                NWChem Input Module
                                -------------------


 Turning off AUTOSYM since
 SYMMETRY directive was detected!



                             Geometry "geometry" -> ""
                             -------------------------

 Output coordinates in a.u. (scale by  1.000000000 to convert to a.u.)

  No.       Tag          Charge          X              Y              Z
 ---- ---------------- ---------- -------------- -------------- --------------
    1 H                    1.0000     0.00000000     0.00000000    -1.49434600
    2 H                    1.0000     0.00000000     0.00000000     1.49434600

      Atomic Mass 
      ----------- 

      H                  1.007825


 Effective nuclear repulsion energy (a.u.)       0.3345945317

            Nuclear Dipole moment (a.u.) 
            ----------------------------
        X                 Y               Z
 ---------------- ---------------- ----------------
     0.0000000000     0.0000000000     0.0000000000

      Symmetry information
      --------------------

 Group name             Cs        
 Group number              2
 Group order               2
 No. of unique centers     1

      Symmetry unique atoms

     1


            XYZ format geometry
            -------------------
     2
 geometry
 H                     0.00000000     0.00000000    -0.79077391
 H                     0.00000000     0.00000000     0.79077391

                      Basis "ao basis" -> "" (cartesian)
                      -----
  H (Hydrogen)
  ------------
            Exponent  Coefficients 
       -------------- ---------------------------------------------------------
  1 S  1.87311370E+01  0.033495
  1 S  2.82539370E+00  0.234727
  1 S  6.40121700E-01  0.813757

  2 S  1.61277800E-01  1.000000

  3 P  1.10000000E+00  1.000000



 Summary of "ao basis" -> "" (cartesian)
 ------------------------------------------------------------------------------
       Tag                 Description            Shells   Functions and Types
 ---------------- ------------------------------  ------  ---------------------
 H                          6-31g**                  3        5   2s1p



                                NWChem WFN1 Module
                                ------------------



          No. of electrons :     2
           Alpha electrons :     1
            Beta electrons :     1
          Charge           :     0
          Spin multiplicity:     1

 HvD: wfn1_inpdft
 HvD: nquad_task =                     1
 HvD: iangquad   =                     0
 HvD: gridtype   = user      
 HvD: leb        =  T
 HvD: radgrid    = murakn    
 HvD: trunc_neigh=  T
 HvD: lssw       =  T
 HvD: whichssw   = erf1    
 HvD: mxnrad     =                     0
 HvD: mxnang     =                     0
 HVD: wfn1: movecs_in  = atomic                                                                                                                                                                                                                                                          
 HVD: wfn1: movecs_out = ./wfn1_dat.movecs                                                                                                                                                                                                                                               

      Superposition of Atomic Density Guess
      -------------------------------------

 Sum of atomic energies:          -0.99646508

      Non-variational initial energy
      ------------------------------

 Total energy =      -0.718446
 1-e energy   =      -1.660768
 2-e energy   =       0.607728
 HOMO         =      -0.323896
 LUMO         =      -0.042938

 iteration              energy           error
 ---------              ------           -----
         0         -0.97721529        0.200000
         1         -0.97904794        0.200000
         2         -0.97948672        0.200000
         3         -0.98009023        0.200000
         4         -0.98048370        0.200000
         5         -0.98084166        0.200000
         6         -0.98156266        0.200000
         7         -0.98212347        0.200000
         8         -0.98304846        0.200000
         9         -0.98368621        0.200000
        10         -0.98383397        0.185175
        11         -0.98386135        0.185175
        12         -0.98465069        0.185175
        13         -0.98466597        0.185175
        14         -0.98504651        0.171449
        15         -0.98517873        0.146973
        16         -0.98526357        0.125992
        17         -0.98544354        0.116653
        18         -0.98576509        0.116653
        19         -0.98581138        0.116653
        20         -0.98619442        0.116653
        21         -0.98625645        0.108006
        22         -0.98656945        0.108006
        23         -0.98670597        0.100000
        24         -0.98670623        0.100000
        25         -0.98692260        0.100000
        26         -0.98703970        0.092587
        27         -0.98717044        0.092587
        28         -0.98721407        0.085724
        29         -0.98728482        0.085724
        30         -0.98745525        0.079370
        31         -0.98749386        0.079370
        32         -0.98757283        0.079370
        33         -0.98767775        0.073487
        34         -0.98779723        0.068040
        35         -0.98784656        0.068040
        36         -0.98787883        0.068040
        37         -0.98788204        0.062996
        38         -0.98788393        0.062996
        39         -0.98788523        0.062996
        40         -0.98790515        0.062996
        41         -0.98792881        0.062996
        42         -0.98798557        0.062996
        43         -0.98807744        0.062996
        44         -0.98808197        0.062996
        45         -0.98812446        0.062996
        46         -0.98816274        0.062996
        47         -0.98822453        0.054003
        48         -0.98824151        0.054003
        49         -0.98828055        0.054003
        50         -0.98831335        0.054003
        51         -0.98841042        0.050000
        52         -0.98846687        0.050000
        53         -0.98850135        0.050000
        54         -0.98856245        0.050000
        55         -0.98859971        0.050000
        56         -0.98871067        0.050000
        57         -0.98880430        0.050000
        58         -0.98885233        0.050000
        59         -0.98888226        0.046294
        60         -0.98895670        0.042862
        61         -0.98898213        0.039685
        62         -0.98919786        0.039685
        63         -0.98923686        0.036743
        64         -0.98925041        0.036743
        65         -0.98925693        0.036743
        66         -0.98928228        0.036743
        67         -0.98935514        0.036743
        68         -0.98938679        0.036743
        69         -0.98946431        0.009921
        70         -0.98946662        0.007291
        71         -0.98947201        0.007291
        72         -0.98948382        0.003125
        73         -0.98948619        0.002126
        74         -0.98948919        0.002126
        75         -0.98950055        0.001969
        76         -0.98950628        0.001688
        77         -0.98954043        0.001563
        78         -0.98956082        0.001563
        79         -0.98956478        0.001148
        80         -0.98956552        0.000266
        81         -0.98958137        0.000195
        82         -0.98958351        0.000098
        83         -0.98958612        0.000098
        84         -0.98958814        0.000024
        85         -0.98959177        0.000021
        86         -0.98959215        0.000019
        87         -0.98959381        0.000008
        88         -0.98959399        0.000006
        89         -0.98959467        0.000006
        90         -0.98959554        0.000003
        91         -0.98959580        0.000003
        92         -0.98959592        0.000002
        93         -0.98959625        0.000001
        94         -0.98959638        0.000001
        95         -0.98959686        0.000001

 Reached Convergence

 WFN1                     :
 --------------------------
 Total WFN1 energy  =          -0.9895968553
 1-Electron energy  =          -1.7707131580
 2-Electron energy  =           0.4680831470
 Correlation energy =          -0.0215613759
 DFT XC energy      =           0.0000000000
 Entropy energy     =           0.0000000000
 Nuclear energy     =           0.3345945317

 conventional Hartree-Fock:
 --------------------------
 Total SCF energy  =          -0.9736134017
 2-Electron energy =           0.4840666005

                WFN1 Final Natural orbital energies and occupations
                ---------------------------------------------------

              Alpha       Beta            Alpha       Beta  
            --------    --------        --------    --------
       1      0.0000      0.0000          0.9725      0.9725
       2      0.0000      0.0000          0.0248      0.0248
       3      0.0000      0.0000          0.0010      0.0010
       4      0.0000      0.0000          0.0010      0.0010
       5      0.0000      0.0000          0.0003      0.0003
       6      0.0000      0.0000          0.0001      0.0001
       7      0.0000      0.0000          0.0000      0.0000
       8      0.0000      0.0000          0.0000      0.0000
       9      0.0000      0.0000          0.0000      0.0000
      10      0.0000      0.0000          0.0002      0.0002

             WFN1 Final Correlation function energies and occupations
             --------------------------------------------------------

              Alpha       Beta            Alpha       Beta  
            --------    --------        --------    --------
       1      0.0000      0.0000          1.0000      1.0000
       2      0.0000      0.0000          0.0000      0.0000
       3      0.0000      0.0000          0.0000      0.0000
       4      0.0000      0.0000          0.0000      0.0000
       5      0.0000      0.0000          0.0000      0.0000
       6      0.0000      0.0000          0.0000      0.0000
       7      0.0000      0.0000          0.0000      0.0000
       8      0.0000      0.0000          0.0000      0.0000
       9      0.0000      0.0000          0.0000      0.0000
      10      0.0000      0.0000          0.0000      0.0000

                WFN1 Final alpha-alpha 2-matrix occupation numbers
                --------------------------------------------------


 global array: g_momo1[1:10,1:10],  handle: -990 

            1           2           3           4           5           6  
       ----------- ----------- ----------- ----------- ----------- -----------
   1       0.00000     0.00000     0.00000    -0.00000     0.00000     0.00000
   2       0.00000     0.00000    -0.00000     0.00000     0.00000     0.00000
   3       0.00000     0.00000     0.00000    -0.00000     0.00000    -0.00000
   4       0.00000     0.00000    -0.00000     0.00000     0.00000    -0.00000
   5      -0.00000     0.00000    -0.00000     0.00000     0.00000    -0.00000
   6       0.00000     0.00000    -0.00000    -0.00000    -0.00000    -0.00000
   7      -0.00000     0.00000     0.00000     0.00000     0.00000    -0.00000
   8      -0.00000     0.00000     0.00000     0.00000    -0.00000    -0.00000
   9       0.00000     0.00000    -0.00000     0.00000     0.00000     0.00000
  10       0.00000     0.00000    -0.00000    -0.00000    -0.00000    -0.00000

            7           8           9          10  
       ----------- ----------- ----------- -----------
   1       0.00000     0.00000    -0.00000     0.00000
   2       0.00000     0.00000     0.00000    -0.00000
   3       0.00000     0.00000     0.00000     0.00000
   4       0.00000     0.00000     0.00000    -0.00000
   5       0.00000    -0.00000    -0.00000    -0.00000
   6       0.00000     0.00000     0.00000    -0.00000
   7       0.00000     0.00000    -0.00000     0.00000
   8       0.00000    -0.00000    -0.00000    -0.00000
   9       0.00000    -0.00000     0.00000     0.00000
  10       0.00000     0.00000    -0.00000     0.00000

                 WFN1 Final beta-beta 2-matrix occupation numbers
                 ------------------------------------------------


 global array: g_momo2[1:10,1:10],  handle: -989 

            1           2           3           4           5           6  
       ----------- ----------- ----------- ----------- ----------- -----------
   1       0.00000     0.00000     0.00000    -0.00000     0.00000     0.00000
   2       0.00000     0.00000    -0.00000     0.00000     0.00000     0.00000
   3       0.00000     0.00000     0.00000    -0.00000     0.00000    -0.00000
   4       0.00000     0.00000    -0.00000     0.00000     0.00000    -0.00000
   5      -0.00000     0.00000    -0.00000     0.00000     0.00000    -0.00000
   6       0.00000     0.00000    -0.00000    -0.00000    -0.00000    -0.00000
   7      -0.00000     0.00000     0.00000     0.00000     0.00000    -0.00000
   8      -0.00000     0.00000     0.00000     0.00000    -0.00000    -0.00000
   9       0.00000     0.00000    -0.00000     0.00000     0.00000     0.00000
  10       0.00000     0.00000    -0.00000    -0.00000    -0.00000    -0.00000

            7           8           9          10  
       ----------- ----------- ----------- -----------
   1       0.00000     0.00000    -0.00000     0.00000
   2       0.00000     0.00000     0.00000    -0.00000
   3       0.00000     0.00000     0.00000     0.00000
   4       0.00000     0.00000     0.00000    -0.00000
   5       0.00000    -0.00000    -0.00000    -0.00000
   6       0.00000     0.00000     0.00000    -0.00000
   7       0.00000     0.00000    -0.00000     0.00000
   8       0.00000    -0.00000    -0.00000    -0.00000
   9       0.00000    -0.00000     0.00000     0.00000
  10       0.00000     0.00000    -0.00000     0.00000

                  WFN1 Final alpha Correlation Function Analysis
                  ----------------------------------------------


 global array: Ca[1:10,1:10],  handle: -977 

                     1                       2                       3                       4                       5                       6  
       ----------------------- ----------------------- ----------------------- ----------------------- ----------------------- -----------------------
   1       0.97235,    0.16454    -0.15793,   -0.00968     0.01250,    0.01465     0.03188,   -0.01763    -0.01117,    0.00785     0.01159,   -0.01207
   2       0.13201,   -0.08615     0.75883,   -0.62435     0.04110,    0.01322    -0.01130,   -0.00908    -0.00704,   -0.00261    -0.04028,    0.02722
   3       0.03149,   -0.00355     0.00861,   -0.02585    -0.75380,    0.14888    -0.61757,    0.13009     0.03268,    0.03810    -0.03098,   -0.04804
   4      -0.00735,    0.03107    -0.02961,    0.01731     0.54475,    0.32787    -0.66176,   -0.38100     0.00327,    0.05428    -0.00208,   -0.02232
   5      -0.01297,   -0.01115     0.02498,   -0.00792     0.00772,    0.01937    -0.00927,    0.09256    -0.72578,    0.35357     0.50940,   -0.26988
   6       0.00147,   -0.00905     0.00299,   -0.00799     0.00668,    0.00707    -0.02654,   -0.02316     0.34464,   -0.01391     0.46789,   -0.00839
   7       0.00000,    0.00000     0.05314,   -0.01198    -0.00001,    0.02459     0.03832,   -0.00783     0.31329,   -0.08871     0.46743,   -0.15725
   8       0.00000,    0.00000    -0.01679,   -0.03919     0.02071,   -0.01941     0.01360,   -0.01534    -0.14665,   -0.16015    -0.20134,   -0.14777
   9       0.00242,   -0.00623    -0.02966,   -0.00134    -0.01613,   -0.00313     0.00487,    0.02270     0.15331,   -0.21578     0.20858,   -0.29488
  10      -0.00276,    0.01233    -0.02542,    0.01831     0.00292,   -0.03017    -0.06671,    0.01503     0.01661,   -0.00512    -0.07792,    0.01160

                     7                       8                       9                      10  
       ----------------------- ----------------------- ----------------------- -----------------------
   1      -0.00907,   -0.00444    -0.00382,    0.00209     0.00582,   -0.00591    -0.00106,   -0.00801
   2       0.01929,   -0.05425     0.00500,   -0.00740     0.00454,    0.02715    -0.02718,    0.01130
   3      -0.01093,    0.03330    -0.01823,   -0.01456    -0.01232,   -0.01013     0.03406,   -0.02413
   4      -0.03076,   -0.01620     0.00645,   -0.02794    -0.02546,   -0.00008     0.03872,    0.05312
   5       0.01966,    0.02111     0.01210,   -0.02161     0.02533,   -0.02080    -0.05479,    0.01777
   6       0.58098,   -0.04790    -0.37337,    0.04498     0.42191,   -0.03511     0.00647,   -0.00298
   7      -0.56988,    0.19905    -0.39440,    0.10577    -0.32418,    0.09229    -0.02154,    0.02150
   8       0.33175,    0.24426    -0.42789,   -0.37867    -0.46654,   -0.41257    -0.05705,    0.00958
   9       0.19287,   -0.28285     0.32610,   -0.50411    -0.28196,    0.47387    -0.05178,    0.11545
  10      -0.04618,   -0.00650    -0.04591,    0.02645     0.10839,    0.02589    -0.97115,    0.16194

                   WFN1 Final beta Correlation Function Analysis
                   ---------------------------------------------


 global array: Cb[1:10,1:10],  handle: -976 

                     1                       2                       3                       4                       5                       6  
       ----------------------- ----------------------- ----------------------- ----------------------- ----------------------- -----------------------
   1       0.97235,    0.16454    -0.15793,   -0.00968     0.01250,    0.01465     0.03188,   -0.01763    -0.01117,    0.00785     0.01159,   -0.01207
   2       0.13201,   -0.08615     0.75883,   -0.62435     0.04110,    0.01322    -0.01130,   -0.00908    -0.00704,   -0.00261    -0.04028,    0.02722
   3       0.03149,   -0.00355     0.00861,   -0.02585    -0.75380,    0.14888    -0.61757,    0.13009     0.03268,    0.03810    -0.03098,   -0.04804
   4      -0.00735,    0.03107    -0.02961,    0.01731     0.54475,    0.32787    -0.66176,   -0.38100     0.00327,    0.05428    -0.00208,   -0.02232
   5      -0.01297,   -0.01115     0.02498,   -0.00792     0.00772,    0.01937    -0.00927,    0.09256    -0.72578,    0.35357     0.50940,   -0.26988
   6       0.00147,   -0.00905     0.00299,   -0.00799     0.00668,    0.00707    -0.02654,   -0.02316     0.34464,   -0.01391     0.46789,   -0.00839
   7       0.00000,    0.00000     0.05314,   -0.01198    -0.00001,    0.02459     0.03832,   -0.00783     0.31329,   -0.08871     0.46743,   -0.15725
   8       0.00000,    0.00000    -0.01679,   -0.03919     0.02071,   -0.01941     0.01360,   -0.01534    -0.14665,   -0.16015    -0.20134,   -0.14777
   9       0.00242,   -0.00623    -0.02966,   -0.00134    -0.01613,   -0.00313     0.00487,    0.02270     0.15331,   -0.21578     0.20858,   -0.29488
  10      -0.00276,    0.01233    -0.02542,    0.01831     0.00292,   -0.03017    -0.06671,    0.01503     0.01661,   -0.00512    -0.07792,    0.01160

                     7                       8                       9                      10  
       ----------------------- ----------------------- ----------------------- -----------------------
   1      -0.00907,   -0.00444    -0.00382,    0.00209     0.00582,   -0.00591    -0.00106,   -0.00801
   2       0.01929,   -0.05425     0.00500,   -0.00740     0.00454,    0.02715    -0.02718,    0.01130
   3      -0.01093,    0.03330    -0.01823,   -0.01456    -0.01232,   -0.01013     0.03406,   -0.02413
   4      -0.03076,   -0.01620     0.00645,   -0.02794    -0.02546,   -0.00008     0.03872,    0.05312
   5       0.01966,    0.02111     0.01210,   -0.02161     0.02533,   -0.02080    -0.05479,    0.01777
   6       0.58098,   -0.04790    -0.37337,    0.04498     0.42191,   -0.03511     0.00647,   -0.00298
   7      -0.56988,    0.19905    -0.39440,    0.10577    -0.32418,    0.09229    -0.02154,    0.02150
   8       0.33175,    0.24426    -0.42789,   -0.37867    -0.46654,   -0.41257    -0.05705,    0.00958
   9       0.19287,   -0.28285     0.32610,   -0.50411    -0.28196,    0.47387    -0.05178,    0.11545
  10      -0.04618,   -0.00650    -0.04591,    0.02645     0.10839,    0.02589    -0.97115,    0.16194

                     WFN1 Final Alpha Natural Orbital Analysis
                     -----------------------------------------

 Vector    1  Occ=9.725457D-01  E= 0.000000D+00
              MO Center=  1.9D-04, -8.8D-04, -2.8D-03, r^2= 1.4D+00
   Bfn.  Coefficient  Atom+Function         Bfn.  Coefficient  Atom+Function  
  ----- ------------  ---------------      ----- ------------  ---------------
     2      0.426531  1 H  s                  7      0.421420  2 H  s          
     1      0.236189  1 H  s                  6      0.236785  2 H  s          

 Vector    2  Occ=2.484920D-02  E= 0.000000D+00
              MO Center=  6.2D-03, -1.3D-03,  2.1D-02, r^2= 1.9D+00
   Bfn.  Coefficient  Atom+Function         Bfn.  Coefficient  Atom+Function  
  ----- ------------  ---------------      ----- ------------  ---------------
     7     -0.768923  2 H  s                  2      0.705733  1 H  s          
     1      0.284446  1 H  s                  6     -0.203450  2 H  s          

 Vector    3  Occ=1.004366D-03  E= 0.000000D+00
              MO Center= -6.0D-03,  1.4D-03,  4.0D-02, r^2= 2.1D+00
   Bfn.  Coefficient  Atom+Function         Bfn.  Coefficient  Atom+Function  
  ----- ------------  ---------------      ----- ------------  ---------------
     7      1.068868  2 H  s                  2     -1.035975  1 H  s          
     6     -0.932105  2 H  s                  1      0.887996  1 H  s          
     3     -0.040421  1 H  px                 4      0.034128  1 H  py         
     5      0.027547  1 H  pz                10      0.026498  2 H  pz         

 Vector    4  Occ=1.019514D-03  E= 0.000000D+00
              MO Center= -6.2D-03,  4.5D-03, -3.5D-02, r^2= 1.7D+00
   Bfn.  Coefficient  Atom+Function         Bfn.  Coefficient  Atom+Function  
  ----- ------------  ---------------      ----- ------------  ---------------
     1      0.932549  1 H  s                  6      0.923911  2 H  s          
     2     -0.729847  1 H  s                  7     -0.637369  2 H  s          
     3     -0.064694  1 H  px                 5      0.058481  1 H  pz         
     4      0.037775  1 H  py         

 Vector    5  Occ=2.926449D-04  E= 0.000000D+00
              MO Center=  1.2D-03, -1.1D-03,  1.7D-02, r^2= 1.0D+00
   Bfn.  Coefficient  Atom+Function         Bfn.  Coefficient  Atom+Function  
  ----- ------------  ---------------      ----- ------------  ---------------
    10      0.700195  2 H  pz                 5     -0.673763  1 H  pz         
     2      0.049528  1 H  s                  1      0.035180  1 H  s          
     7      0.031843  2 H  s                  6      0.026755  2 H  s          

 Vector    6  Occ=8.408254D-05  E= 0.000000D+00
              MO Center= -1.2D-04, -2.8D-03, -6.5D-02, r^2= 9.4D-01
   Bfn.  Coefficient  Atom+Function         Bfn.  Coefficient  Atom+Function  
  ----- ------------  ---------------      ----- ------------  ---------------
     4     -0.729951  1 H  py                 9     -0.673096  2 H  py         
     1      0.061212  1 H  s                  2     -0.058395  1 H  s          
     8     -0.044083  2 H  px                 3     -0.039571  1 H  px         
     5      0.031834  1 H  pz         

 Vector    7  Occ=2.922532D-17  E= 0.000000D+00
              MO Center=  5.1D-03, -3.2D-04,  3.0D-02, r^2= 9.4D-01
   Bfn.  Coefficient  Atom+Function         Bfn.  Coefficient  Atom+Function  
  ----- ------------  ---------------      ----- ------------  ---------------
     8      0.715567  2 H  px                 3      0.685306  1 H  px         
     5      0.069897  1 H  pz                 1      0.061842  1 H  s          
     4     -0.040321  1 H  py                 2     -0.039317  1 H  s          
     9     -0.036881  2 H  py                 7     -0.030695  2 H  s          
    10      0.029378  2 H  pz                 6      0.027658  2 H  s          

 Vector    8  Occ=7.205726D-17  E= 0.000000D+00
              MO Center=  2.0D-05,  7.0D-04,  6.4D-02, r^2= 9.4D-01
   Bfn.  Coefficient  Atom+Function         Bfn.  Coefficient  Atom+Function  
  ----- ------------  ---------------      ----- ------------  ---------------
     9      0.737400  2 H  py                 4     -0.679592  1 H  py         
     3     -0.027054  1 H  px         

 Vector    9  Occ=4.471942D-05  E= 0.000000D+00
              MO Center= -2.3D-03,  1.2D-04, -3.6D-02, r^2= 9.5D-01
   Bfn.  Coefficient  Atom+Function         Bfn.  Coefficient  Atom+Function  
  ----- ------------  ---------------      ----- ------------  ---------------
     3     -0.722135  1 H  px                 8      0.692769  2 H  px         
     2      0.087407  1 H  s                  1     -0.073169  1 H  s          
    10      0.034360  2 H  pz                 9     -0.028551  2 H  py         
     7     -0.028383  2 H  s          

 Vector   10  Occ=1.597578D-04  E= 0.000000D+00
              MO Center=  1.9D-03, -3.4D-04, -3.4D-02, r^2= 1.0D+00
   Bfn.  Coefficient  Atom+Function         Bfn.  Coefficient  Atom+Function  
  ----- ------------  ---------------      ----- ------------  ---------------
     5     -0.752733  1 H  pz                10     -0.733235  2 H  pz         
     2     -0.305765  1 H  s                  7      0.272821  2 H  s          
     1      0.143774  1 H  s                  6     -0.092663  2 H  s          
     8      0.071810  2 H  px         


                     WFN1 Final Beta Natural Orbital Analysis
                     ----------------------------------------

 Vector    1  Occ=9.725457D-01  E= 0.000000D+00
              MO Center=  1.9D-04, -8.8D-04, -2.8D-03, r^2= 1.4D+00
   Bfn.  Coefficient  Atom+Function         Bfn.  Coefficient  Atom+Function  
  ----- ------------  ---------------      ----- ------------  ---------------
     2      0.426531  1 H  s                  7      0.421420  2 H  s          
     1      0.236189  1 H  s                  6      0.236785  2 H  s          

 Vector    2  Occ=2.484920D-02  E= 0.000000D+00
              MO Center=  6.2D-03, -1.3D-03,  2.1D-02, r^2= 1.9D+00
   Bfn.  Coefficient  Atom+Function         Bfn.  Coefficient  Atom+Function  
  ----- ------------  ---------------      ----- ------------  ---------------
     7     -0.768923  2 H  s                  2      0.705733  1 H  s          
     1      0.284446  1 H  s                  6     -0.203450  2 H  s          

 Vector    3  Occ=1.004366D-03  E= 0.000000D+00
              MO Center= -6.0D-03,  1.4D-03,  4.0D-02, r^2= 2.1D+00
   Bfn.  Coefficient  Atom+Function         Bfn.  Coefficient  Atom+Function  
  ----- ------------  ---------------      ----- ------------  ---------------
     7      1.068868  2 H  s                  2     -1.035975  1 H  s          
     6     -0.932105  2 H  s                  1      0.887996  1 H  s          
     3     -0.040421  1 H  px                 4      0.034128  1 H  py         
     5      0.027547  1 H  pz                10      0.026498  2 H  pz         

 Vector    4  Occ=1.019514D-03  E= 0.000000D+00
              MO Center= -6.2D-03,  4.5D-03, -3.5D-02, r^2= 1.7D+00
   Bfn.  Coefficient  Atom+Function         Bfn.  Coefficient  Atom+Function  
  ----- ------------  ---------------      ----- ------------  ---------------
     1      0.932549  1 H  s                  6      0.923911  2 H  s          
     2     -0.729847  1 H  s                  7     -0.637369  2 H  s          
     3     -0.064694  1 H  px                 5      0.058481  1 H  pz         
     4      0.037775  1 H  py         

 Vector    5  Occ=2.926449D-04  E= 0.000000D+00
              MO Center=  1.2D-03, -1.1D-03,  1.7D-02, r^2= 1.0D+00
   Bfn.  Coefficient  Atom+Function         Bfn.  Coefficient  Atom+Function  
  ----- ------------  ---------------      ----- ------------  ---------------
    10      0.700195  2 H  pz                 5     -0.673763  1 H  pz         
     2      0.049528  1 H  s                  1      0.035180  1 H  s          
     7      0.031843  2 H  s                  6      0.026755  2 H  s          

 Vector    6  Occ=8.408254D-05  E= 0.000000D+00
              MO Center= -1.2D-04, -2.8D-03, -6.5D-02, r^2= 9.4D-01
   Bfn.  Coefficient  Atom+Function         Bfn.  Coefficient  Atom+Function  
  ----- ------------  ---------------      ----- ------------  ---------------
     4     -0.729951  1 H  py                 9     -0.673096  2 H  py         
     1      0.061212  1 H  s                  2     -0.058395  1 H  s          
     8     -0.044083  2 H  px                 3     -0.039571  1 H  px         
     5      0.031834  1 H  pz         

 Vector    7  Occ=2.922532D-17  E= 0.000000D+00
              MO Center=  5.1D-03, -3.2D-04,  3.0D-02, r^2= 9.4D-01
   Bfn.  Coefficient  Atom+Function         Bfn.  Coefficient  Atom+Function  
  ----- ------------  ---------------      ----- ------------  ---------------
     8      0.715567  2 H  px                 3      0.685306  1 H  px         
     5      0.069897  1 H  pz                 1      0.061842  1 H  s          
     4     -0.040321  1 H  py                 2     -0.039317  1 H  s          
     9     -0.036881  2 H  py                 7     -0.030695  2 H  s          
    10      0.029378  2 H  pz                 6      0.027658  2 H  s          

 Vector    8  Occ=7.205726D-17  E= 0.000000D+00
              MO Center=  2.0D-05,  7.0D-04,  6.4D-02, r^2= 9.4D-01
   Bfn.  Coefficient  Atom+Function         Bfn.  Coefficient  Atom+Function  
  ----- ------------  ---------------      ----- ------------  ---------------
     9      0.737400  2 H  py                 4     -0.679592  1 H  py         
     3     -0.027054  1 H  px         

 Vector    9  Occ=4.471942D-05  E= 0.000000D+00
              MO Center= -2.3D-03,  1.2D-04, -3.6D-02, r^2= 9.5D-01
   Bfn.  Coefficient  Atom+Function         Bfn.  Coefficient  Atom+Function  
  ----- ------------  ---------------      ----- ------------  ---------------
     3     -0.722135  1 H  px                 8      0.692769  2 H  px         
     2      0.087407  1 H  s                  1     -0.073169  1 H  s          
    10      0.034360  2 H  pz                 9     -0.028551  2 H  py         
     7     -0.028383  2 H  s          

 Vector   10  Occ=1.597578D-04  E= 0.000000D+00
              MO Center=  1.9D-03, -3.4D-04, -3.4D-02, r^2= 1.0D+00
   Bfn.  Coefficient  Atom+Function         Bfn.  Coefficient  Atom+Function  
  ----- ------------  ---------------      ----- ------------  ---------------
     5     -0.752733  1 H  pz                10     -0.733235  2 H  pz         
     2     -0.305765  1 H  s                  7      0.272821  2 H  s          
     1      0.143774  1 H  s                  6     -0.092663  2 H  s          
     8      0.071810  2 H  px         


 Task  times  cpu:      204.0s     wall:      264.9s
 Summary of allocated global arrays
-----------------------------------
  No active global arrays



                         GA Statistics for process    0
                         ------------------------------

       create   destroy   get      put      acc     scatter   gather  read&inc
calls:   44       44     5.57e+07 2.55e+04 3.19e+04    0        0       11     
number of processes/call 1.00e+00 1.00e+00 1.00e+00 0.00e+00 0.00e+00
bytes total:             4.46e+10 2.55e+07 3.18e+07 0.00e+00 0.00e+00 8.80e+01
bytes remote:            0.00e+00 0.00e+00 0.00e+00 0.00e+00 0.00e+00 0.00e+00
Max memory consumed for GA by this process: 268000 bytes
MA_summarize_allocated_blocks: starting scan ...
MA_summarize_allocated_blocks: scan completed: 0 heap blocks, 0 stack blocks
MA usage statistics:

	allocation statistics:
					      heap	     stack
					      ----	     -----
	current number of blocks	         0	         0
	maximum number of blocks	        19	        17
	current total bytes		         0	         0
	maximum total bytes		   3205432	  22508664
	maximum total K-bytes		      3206	     22509
	maximum total M-bytes		         4	        23


                                NWChem Input Module
                                -------------------





                                     CITATION
                                     --------
                Please cite the following reference when publishing
                           results obtained with NWChem:

                 M. Valiev, E.J. Bylaska, N. Govind, K. Kowalski,
              T.P. Straatsma, H.J.J. van Dam, D. Wang, J. Nieplocha,
                        E. Apra, T.L. Windus, W.A. de Jong
                 "NWChem: a comprehensive and scalable open-source
                  solution for large scale molecular simulations"
                      Comput. Phys. Commun. 181, 1477 (2010)
                           doi:10.1016/j.cpc.2010.04.018

                                      AUTHORS
                                      -------
          E. Apra, E. J. Bylaska, W. A. de Jong, N. Govind, K. Kowalski,
       T. P. Straatsma, M. Valiev, H. J. J. van Dam, D. Wang, T. L. Windus,
        J. Hammond, J. Autschbach, K. Bhaskaran-Nair, J. Brabec, K. Lopata,
    S. A. Fischer, S. Krishnamoorthy, M. Jacquelin, W. Ma, M. Klemm, O. Villa,
      Y. Chen, V. Anisimov, F. Aquino, S. Hirata, M. T. Hackler, V. Konjkov,
      T. Risthaus, M. Malagoli, A. Marenich, A. Otero-de-la-Roza, J. Mullin,
        P. Nichols, R. Peverati, J. Pittner, Y. Zhao, P.-D. Fan, A. Fonari,
       M. Williamson, R. J. Harrison, J. R. Rehr, M. Dupuis, D. Silverstein,
    D. M. A. Smith, J. Nieplocha, V. Tipparaju, M. Krishnan, B. E. Van Kuiken,
        A. Vazquez-Mayagoitia, L. Jensen, M. Swart, Q. Wu, T. Van Voorhis,
     A. A. Auer, M. Nooijen, L. D. Crosby, E. Brown, G. Cisneros, G. I. Fann,
   H. Fruchtl, J. Garza, K. Hirao, R. A. Kendall, J. A. Nichols, K. Tsemekhman,
    K. Wolinski, J. Anchell, D. E. Bernholdt, P. Borowski, T. Clark, D. Clerc,
   H. Dachsel, M. J. O. Deegan, K. Dyall, D. Elwood, E. Glendening, M. Gutowski,
   A. C. Hess, J. Jaffe, B. G. Johnson, J. Ju, R. Kobayashi, R. Kutteh, Z. Lin,
   R. Littlefield, X. Long, B. Meng, T. Nakajima, S. Niu, L. Pollack, M. Rosing,
   K. Glaesemann, G. Sandrone, M. Stave, H. Taylor, G. Thomas, J. H. van Lenthe,
                               A. T. Wong, Z. Zhang.

 Total times  cpu:      204.0s     wall:      264.9s
