 argument  1 = input-wf.nw



============================== echo of input deck ==============================
echo
start wfn1_dat
geometry units au noautoz
  H 0 0 -.94434600000000000000
  H 0 0  .94434600000000000000
  symmetry cs
end
basis
  H library 6-31g**
end
set wfn1:input_vectors "atomic"
set wfn1:solver "monte-carlo"
set wfn1:print_error F
set wfn1:t_initial 0.1
#set wfn1:corr_expr "wfn1_mx"
set wfn1:corr_expr "wfn1c"
set wfn1:t_bath 0.0
set wfn1:maxit  20000
task wfn1 energy
================================================================================


                                         
                                         


              Northwest Computational Chemistry Package (NWChem) 6.8
              ------------------------------------------------------


                    Environmental Molecular Sciences Laboratory
                       Pacific Northwest National Laboratory
                                Richland, WA 99352

                              Copyright (c) 1994-2015
                       Pacific Northwest National Laboratory
                            Battelle Memorial Institute

             NWChem is an open-source computational chemistry package
                        distributed under the terms of the
                      Educational Community License (ECL) 2.0
             A copy of the license is included with this distribution
                              in the LICENSE.TXT file

                                  ACKNOWLEDGMENT
                                  --------------

            This software and its documentation were developed at the
            EMSL at Pacific Northwest National Laboratory, a multiprogram
            national laboratory, operated for the U.S. Department of Energy
            by Battelle under Contract Number DE-AC05-76RL01830. Support
            for this work was provided by the Department of Energy Office
            of Biological and Environmental Research, Office of Basic
            Energy Sciences, and the Office of Advanced Scientific Computing.


           Job information
           ---------------

    hostname        = erato
    program         = ../../../bin/LINUX64/nwchem
    date            = Mon Mar  1 10:19:15 2021

    compiled        = Sun_Feb_28_18:02:42_2021
    source          = /home/hvandam/nwchem-1-wfn1
    nwchem branch   = Development
    nwchem revision = nwchem_on_git-124-gad72d19fff205e319ffbbf2bca37a04ded6ad57b
    ga revision     = nwchem_on_git-124-gad72d19
    use scalapack   = F
    input           = input-wf.nw
    prefix          = wfn1_dat.
    data base       = ./wfn1_dat.db
    status          = startup
    nproc           =        1
    time left       =     -1s



           Memory information
           ------------------

    heap     =   13107198 doubles =    100.0 Mbytes
    stack    =   13107195 doubles =    100.0 Mbytes
    global   =   26214400 doubles =    200.0 Mbytes (distinct from heap & stack)
    total    =   52428793 doubles =    400.0 Mbytes
    verify   = yes
    hardfail = no 


           Directory information
           ---------------------

  0 permanent = .
  0 scratch   = .




                                NWChem Input Module
                                -------------------


 Turning off AUTOSYM since
 SYMMETRY directive was detected!



                             Geometry "geometry" -> ""
                             -------------------------

 Output coordinates in a.u. (scale by  1.000000000 to convert to a.u.)

  No.       Tag          Charge          X              Y              Z
 ---- ---------------- ---------- -------------- -------------- --------------
    1 H                    1.0000     0.00000000     0.00000000    -0.94434600
    2 H                    1.0000     0.00000000     0.00000000     0.94434600

      Atomic Mass 
      ----------- 

      H                  1.007825


 Effective nuclear repulsion energy (a.u.)       0.5294669538

            Nuclear Dipole moment (a.u.) 
            ----------------------------
        X                 Y               Z
 ---------------- ---------------- ----------------
     0.0000000000     0.0000000000     0.0000000000

      Symmetry information
      --------------------

 Group name             Cs        
 Group number              2
 Group order               2
 No. of unique centers     1

      Symmetry unique atoms

     1


            XYZ format geometry
            -------------------
     2
 geometry
 H                     0.00000000     0.00000000    -0.49972642
 H                     0.00000000     0.00000000     0.49972642

                      Basis "ao basis" -> "" (cartesian)
                      -----
  H (Hydrogen)
  ------------
            Exponent  Coefficients 
       -------------- ---------------------------------------------------------
  1 S  1.87311370E+01  0.033495
  1 S  2.82539370E+00  0.234727
  1 S  6.40121700E-01  0.813757

  2 S  1.61277800E-01  1.000000

  3 P  1.10000000E+00  1.000000



 Summary of "ao basis" -> "" (cartesian)
 ------------------------------------------------------------------------------
       Tag                 Description            Shells   Functions and Types
 ---------------- ------------------------------  ------  ---------------------
 H                          6-31g**                  3        5   2s1p



                                NWChem WFN1 Module
                                ------------------



          No. of electrons :     2
           Alpha electrons :     1
            Beta electrons :     1
          Charge           :     0
          Spin multiplicity:     1

 HvD: wfn1_inpdft
 HvD: nquad_task =                     1
 HvD: iangquad   =                     0
 HvD: gridtype   = user      
 HvD: leb        =  T
 HvD: radgrid    = murakn    
 HvD: trunc_neigh=  T
 HvD: lssw       =  T
 HvD: whichssw   = erf1    
 HvD: mxnrad     =                     0
 HvD: mxnang     =                     0
 HVD: wfn1: movecs_in  = atomic                                                                                                                                                                                                                                                          
 HVD: wfn1: movecs_out = ./wfn1_dat.movecs                                                                                                                                                                                                                                               

      Superposition of Atomic Density Guess
      -------------------------------------

 Sum of atomic energies:          -0.99646508

      Non-variational initial energy
      ------------------------------

 Total energy =      -0.805883
 1-e energy   =      -1.988547
 2-e energy   =       0.653198
 HOMO         =      -0.472328
 LUMO         =       0.099950

 iteration              energy           error
 ---------              ------           -----
         0         -1.09889400        0.200000
         1         -1.09890962        0.200000
         2         -1.09908232        0.200000
         3         -1.09925681        0.200000
         4         -1.09968778        0.171449
         5         -1.09970551        0.146973
         6         -1.09993030        0.136079
         7         -1.09996029        0.108006
         8         -1.10007714        0.108006
         9         -1.10025701        0.108006
        10         -1.10029669        0.100000
        11         -1.10037040        0.100000
        12         -1.10038999        0.100000
        13         -1.10055949        0.085724
        14         -1.10064362        0.079370
        15         -1.10065874        0.079370
        16         -1.10073842        0.079370
        17         -1.10077648        0.073487
        18         -1.10077684        0.068040
        19         -1.10080736        0.058326
        20         -1.10084012        0.058326
        21         -1.10088627        0.058326
        22         -1.10088924        0.058326
        23         -1.10097274        0.058326
        24         -1.10098091        0.046294
        25         -1.10105234        0.046294
        26         -1.10107129        0.036743
        27         -1.10111768        0.029163
        28         -1.10115826        0.025000
        29         -1.10116319        0.013501
        30         -1.10119445        0.009921
        31         -1.10120217        0.009186
        32         -1.10120310        0.005358
        33         -1.10121130        0.004961
        34         -1.10122690        0.004961
        35         -1.10123942        0.004961
        36         -1.10124843        0.004593
        37         -1.10125050        0.002679
        38         -1.10126305        0.002679
        39         -1.10126509        0.002126
        40         -1.10126831        0.001240
        41         -1.10127246        0.000984
        42         -1.10127746        0.000911
        43         -1.10128645        0.000844
        44         -1.10128673        0.000670
        45         -1.10128813        0.000391
        46         -1.10129341        0.000335
        47         -1.10129803        0.000310
        48         -1.10129806        0.000228
        49         -1.10129940        0.000123
        50         -1.10130025        0.000098
        51         -1.10130142        0.000066
        52         -1.10130224        0.000057
        53         -1.10130307        0.000045
        54         -1.10130364        0.000045
        55         -1.10130396        0.000036
        56         -1.10130416        0.000036
        57         -1.10130483        0.000036
        58         -1.10130516        0.000026
        59         -1.10130546        0.000026
        60         -1.10130551        0.000021
        61         -1.10130642        0.000014
        62         -1.10130675        0.000010
        63         -1.10130684        0.000010
        64         -1.10130723        0.000006
        65         -1.10130734        0.000006
        66         -1.10130769        0.000004
        67         -1.10130807        0.000004
        68         -1.10130810        0.000004
        69         -1.10130847        0.000003
        70         -1.10130850        0.000003
        71         -1.10130865        0.000003
        72         -1.10130895        0.000003
        73         -1.10130911        0.000002
        74         -1.10130922        0.000002
        75         -1.10130948        0.000002
        76         -1.10130972        0.000001

 Reached Convergence

 WFN1                     :
 --------------------------
 Total WFN1 energy  =          -1.1013097244
 1-Electron energy  =          -2.2049927953
 2-Electron energy  =           0.5786178112
 Correlation energy =          -0.0044016942
 DFT XC energy      =           0.0000000000
 Entropy energy     =           0.0000000000
 Nuclear energy     =           0.5294669538

 conventional Hartree-Fock:
 --------------------------
 Total SCF energy  =          -1.0997009055
 2-Electron energy =           0.5802266301

                WFN1 Final Natural orbital energies and occupations
                ---------------------------------------------------

              Alpha       Beta            Alpha       Beta  
            --------    --------        --------    --------
       1      0.0000      0.0000          0.9978      0.9978
       2      0.0000      0.0000          0.0019      0.0019
       3      0.0000      0.0000          0.0001      0.0001
       4      0.0000      0.0000          0.0001      0.0001
       5      0.0000      0.0000          0.0000      0.0000
       6      0.0000      0.0000          0.0001      0.0001
       7      0.0000      0.0000          0.0001      0.0001
       8      0.0000      0.0000          0.0000      0.0000
       9      0.0000      0.0000          0.0000      0.0000
      10      0.0000      0.0000          0.0000      0.0000

             WFN1 Final Correlation function energies and occupations
             --------------------------------------------------------

              Alpha       Beta            Alpha       Beta  
            --------    --------        --------    --------
       1      0.0000      0.0000          1.0000      1.0000
       2      0.0000      0.0000          0.0000      0.0000
       3      0.0000      0.0000          0.0000      0.0000
       4      0.0000      0.0000          0.0000      0.0000
       5      0.0000      0.0000          0.0000      0.0000
       6      0.0000      0.0000          0.0000      0.0000
       7      0.0000      0.0000          0.0000      0.0000
       8      0.0000      0.0000          0.0000      0.0000
       9      0.0000      0.0000          0.0000      0.0000
      10      0.0000      0.0000          0.0000      0.0000

                WFN1 Final alpha-alpha 2-matrix occupation numbers
                --------------------------------------------------


 global array: g_momo1[1:10,1:10],  handle: -990 

            1           2           3           4           5           6  
       ----------- ----------- ----------- ----------- ----------- -----------
   1       0.00000    -0.00000    -0.00000    -0.00000     0.00000    -0.00000
   2       0.00000     0.00000     0.00000    -0.00000     0.00000     0.00000
   3       0.00000    -0.00000     0.00000     0.00000     0.00000     0.00000
   4      -0.00000    -0.00000     0.00000    -0.00000     0.00000     0.00000
   5       0.00000     0.00000    -0.00000    -0.00000     0.00000    -0.00000
   6      -0.00000     0.00000     0.00000     0.00000     0.00000     0.00000
   7       0.00000    -0.00000     0.00000     0.00000     0.00000    -0.00000
   8       0.00000    -0.00000    -0.00000    -0.00000     0.00000     0.00000
   9      -0.00000     0.00000     0.00000     0.00000     0.00000    -0.00000
  10       0.00000     0.00000    -0.00000     0.00000     0.00000    -0.00000

            7           8           9          10  
       ----------- ----------- ----------- -----------
   1       0.00000     0.00000     0.00000     0.00000
   2       0.00000     0.00000     0.00000    -0.00000
   3       0.00000     0.00000     0.00000     0.00000
   4       0.00000     0.00000     0.00000    -0.00000
   5       0.00000     0.00000     0.00000     0.00000
   6       0.00000     0.00000     0.00000    -0.00000
   7       0.00000     0.00000     0.00000    -0.00000
   8       0.00000     0.00000    -0.00000     0.00000
   9       0.00000     0.00000    -0.00000     0.00000
  10      -0.00000     0.00000     0.00000     0.00000

                 WFN1 Final beta-beta 2-matrix occupation numbers
                 ------------------------------------------------


 global array: g_momo2[1:10,1:10],  handle: -989 

            1           2           3           4           5           6  
       ----------- ----------- ----------- ----------- ----------- -----------
   1       0.00000    -0.00000    -0.00000    -0.00000     0.00000    -0.00000
   2       0.00000     0.00000     0.00000    -0.00000     0.00000     0.00000
   3       0.00000    -0.00000     0.00000     0.00000     0.00000     0.00000
   4      -0.00000    -0.00000     0.00000    -0.00000     0.00000     0.00000
   5       0.00000     0.00000    -0.00000    -0.00000     0.00000    -0.00000
   6      -0.00000     0.00000     0.00000     0.00000     0.00000     0.00000
   7       0.00000    -0.00000     0.00000     0.00000     0.00000    -0.00000
   8       0.00000    -0.00000    -0.00000    -0.00000     0.00000     0.00000
   9      -0.00000     0.00000     0.00000     0.00000     0.00000    -0.00000
  10       0.00000     0.00000    -0.00000     0.00000     0.00000    -0.00000

            7           8           9          10  
       ----------- ----------- ----------- -----------
   1       0.00000     0.00000     0.00000     0.00000
   2       0.00000     0.00000     0.00000    -0.00000
   3       0.00000     0.00000     0.00000     0.00000
   4       0.00000     0.00000     0.00000    -0.00000
   5       0.00000     0.00000     0.00000     0.00000
   6       0.00000     0.00000     0.00000    -0.00000
   7       0.00000     0.00000     0.00000    -0.00000
   8       0.00000     0.00000    -0.00000     0.00000
   9       0.00000     0.00000    -0.00000     0.00000
  10      -0.00000     0.00000     0.00000     0.00000

                  WFN1 Final alpha Correlation Function Analysis
                  ----------------------------------------------


 global array: Ca[1:10,1:10],  handle: -981 

                     1                       2                       3                       4                       5                       6  
       ----------------------- ----------------------- ----------------------- ----------------------- ----------------------- -----------------------
   1       0.29097,    0.95559    -0.02523,   -0.03533    -0.00304,   -0.00146     0.00945,    0.00390    -0.00191,    0.00555     0.00168,   -0.00406
   2       0.03243,    0.02832     0.92278,    0.37756    -0.01670,   -0.02553     0.01546,   -0.01859    -0.00990,    0.01143    -0.00010,   -0.02494
   3      -0.00516,    0.00573     0.00823,    0.02526    -0.01814,    0.94358     0.00196,   -0.32591     0.02343,   -0.00403     0.00667,   -0.00767
   4       0.00143,   -0.00893     0.02008,   -0.01952     0.23746,    0.22323     0.69438,    0.63938    -0.00517,    0.00500     0.00146,    0.00551
   5       0.00000,    0.00000    -0.01466,   -0.00119    -0.01720,    0.00929     0.01275,   -0.00504    -0.52214,   -0.41804    -0.57510,   -0.46548
   6       0.00279,    0.00937     0.01340,    0.00704    -0.01016,   -0.00367     0.00790,   -0.00443     0.08110,   -0.68695    -0.07404,    0.61782
   7       0.00620,    0.00398     0.01052,    0.03003    -0.00707,   -0.00661    -0.00284,    0.00170     0.26304,   -0.03547    -0.24735,    0.03147
   8      -0.00000,    0.00000     0.00290,    0.02629     0.00177,    0.02059     0.01393,    0.00386     0.03271,   -0.02158     0.00340,   -0.03064
   9      -0.00135,   -0.00417     0.01051,    0.01545     0.00794,    0.01233     0.01338,   -0.01935    -0.02255,   -0.02082    -0.03264,    0.00066
  10       0.00488,   -0.00150    -0.00401,    0.00528    -0.01351,    0.02754     0.02784,    0.01743     0.01441,    0.01128     0.00810,    0.01932

                     7                       8                       9                      10  
       ----------------------- ----------------------- ----------------------- -----------------------
   1      -0.00450,   -0.00795    -0.00324,   -0.00063     0.00338,    0.00031    -0.00542,    0.00056
   2      -0.01331,    0.01931     0.02785,    0.00796    -0.00059,    0.01672     0.00552,   -0.00236
   3       0.00255,    0.00782     0.00668,    0.02011    -0.01434,    0.00637     0.02383,    0.01880
   4       0.00504,    0.00750    -0.00995,    0.02336    -0.00093,   -0.00353     0.00707,    0.03273
   5       0.00329,    0.00146     0.05112,    0.03273     0.00476,   -0.00507    -0.01049,   -0.02374
   6      -0.05371,    0.35526     0.03760,   -0.05622     0.00100,    0.00260     0.00365,    0.01097
   7       0.91303,   -0.07846    -0.16068,    0.01881     0.00088,    0.00704     0.01444,    0.00115
   8       0.04204,   -0.11424     0.24203,   -0.65305     0.24477,   -0.66058     0.00455,   -0.00287
   9      -0.11922,   -0.03176    -0.65353,   -0.22649     0.67031,    0.23149     0.01120,   -0.01464
  10       0.00436,    0.01642     0.01226,   -0.00507    -0.01011,    0.00798    -0.10578,   -0.99263

                   WFN1 Final beta Correlation Function Analysis
                   ---------------------------------------------


 global array: Cb[1:10,1:10],  handle: -980 

                     1                       2                       3                       4                       5                       6  
       ----------------------- ----------------------- ----------------------- ----------------------- ----------------------- -----------------------
   1       0.29097,    0.95559    -0.02523,   -0.03533    -0.00304,   -0.00146     0.00945,    0.00390    -0.00191,    0.00555     0.00168,   -0.00406
   2       0.03243,    0.02832     0.92278,    0.37756    -0.01670,   -0.02553     0.01546,   -0.01859    -0.00990,    0.01143    -0.00010,   -0.02494
   3      -0.00516,    0.00573     0.00823,    0.02526    -0.01814,    0.94358     0.00196,   -0.32591     0.02343,   -0.00403     0.00667,   -0.00767
   4       0.00143,   -0.00893     0.02008,   -0.01952     0.23746,    0.22323     0.69438,    0.63938    -0.00517,    0.00500     0.00146,    0.00551
   5       0.00000,    0.00000    -0.01466,   -0.00119    -0.01720,    0.00929     0.01275,   -0.00504    -0.52214,   -0.41804    -0.57510,   -0.46548
   6       0.00279,    0.00937     0.01340,    0.00704    -0.01016,   -0.00367     0.00790,   -0.00443     0.08110,   -0.68695    -0.07404,    0.61782
   7       0.00620,    0.00398     0.01052,    0.03003    -0.00707,   -0.00661    -0.00284,    0.00170     0.26304,   -0.03547    -0.24735,    0.03147
   8      -0.00000,    0.00000     0.00290,    0.02629     0.00177,    0.02059     0.01393,    0.00386     0.03271,   -0.02158     0.00340,   -0.03064
   9      -0.00135,   -0.00417     0.01051,    0.01545     0.00794,    0.01233     0.01338,   -0.01935    -0.02255,   -0.02082    -0.03264,    0.00066
  10       0.00488,   -0.00150    -0.00401,    0.00528    -0.01351,    0.02754     0.02784,    0.01743     0.01441,    0.01128     0.00810,    0.01932

                     7                       8                       9                      10  
       ----------------------- ----------------------- ----------------------- -----------------------
   1      -0.00450,   -0.00795    -0.00324,   -0.00063     0.00338,    0.00031    -0.00542,    0.00056
   2      -0.01331,    0.01931     0.02785,    0.00796    -0.00059,    0.01672     0.00552,   -0.00236
   3       0.00255,    0.00782     0.00668,    0.02011    -0.01434,    0.00637     0.02383,    0.01880
   4       0.00504,    0.00750    -0.00995,    0.02336    -0.00093,   -0.00353     0.00707,    0.03273
   5       0.00329,    0.00146     0.05112,    0.03273     0.00476,   -0.00507    -0.01049,   -0.02374
   6      -0.05371,    0.35526     0.03760,   -0.05622     0.00100,    0.00260     0.00365,    0.01097
   7       0.91303,   -0.07846    -0.16068,    0.01881     0.00088,    0.00704     0.01444,    0.00115
   8       0.04204,   -0.11424     0.24203,   -0.65305     0.24477,   -0.66058     0.00455,   -0.00287
   9      -0.11922,   -0.03176    -0.65353,   -0.22649     0.67031,    0.23149     0.01120,   -0.01464
  10       0.00436,    0.01642     0.01226,   -0.00507    -0.01011,    0.00798    -0.10578,   -0.99263

                     WFN1 Final Alpha Natural Orbital Analysis
                     -----------------------------------------

 Vector    1  Occ=9.978098D-01  E= 0.000000D+00
              MO Center=  1.9D-03,  1.0D-03,  1.2D-03, r^2= 9.0D-01
   Bfn.  Coefficient  Atom+Function         Bfn.  Coefficient  Atom+Function  
  ----- ------------  ---------------      ----- ------------  ---------------
     2     -0.330123  1 H  s                  7     -0.327892  2 H  s          
     6     -0.288646  2 H  s                  1     -0.284179  1 H  s          

 Vector    2  Occ=1.853694D-03  E= 0.000000D+00
              MO Center= -4.6D-03, -3.0D-03, -2.6D-02, r^2= 1.8D+00
   Bfn.  Coefficient  Atom+Function         Bfn.  Coefficient  Atom+Function  
  ----- ------------  ---------------      ----- ------------  ---------------
     2     -1.185657  1 H  s                  7      1.146491  2 H  s          
     6      0.247839  2 H  s                  1     -0.202632  1 H  s          

 Vector    3  Occ=5.947471D-05  E= 0.000000D+00
              MO Center= -1.0D-03, -1.1D-03,  1.7D-02, r^2= 1.5D+00
   Bfn.  Coefficient  Atom+Function         Bfn.  Coefficient  Atom+Function  
  ----- ------------  ---------------      ----- ------------  ---------------
     1     -0.834371  1 H  s                  6     -0.809579  2 H  s          
     7      0.709193  2 H  s                  2      0.657178  1 H  s          
     5     -0.094702  1 H  pz                10      0.092009  2 H  pz         
     8      0.026416  2 H  px         

 Vector    4  Occ=8.181452D-05  E= 0.000000D+00
              MO Center=  3.3D-03,  6.9D-03,  9.8D-03, r^2= 1.6D+00
   Bfn.  Coefficient  Atom+Function         Bfn.  Coefficient  Atom+Function  
  ----- ------------  ---------------      ----- ------------  ---------------
     7      1.314325  2 H  s                  2     -1.303627  1 H  s          
     6     -0.939518  2 H  s                  1      0.928540  1 H  s          
    10     -0.118497  2 H  pz                 5     -0.116565  1 H  pz         
     9     -0.025573  2 H  py         

 Vector    5  Occ=1.753286D-16  E= 0.000000D+00
              MO Center= -9.2D-05, -4.0D-05,  3.0D-03, r^2= 5.4D-01
   Bfn.  Coefficient  Atom+Function         Bfn.  Coefficient  Atom+Function  
  ----- ------------  ---------------      ----- ------------  ---------------
     8     -0.608579  2 H  px                 3     -0.604723  1 H  px         
     9     -0.264657  2 H  py                 4     -0.262927  1 H  py         
     1     -0.041665  1 H  s                  7      0.038986  2 H  s          

 Vector    6  Occ=9.568323D-05  E= 0.000000D+00
              MO Center= -1.9D-04,  4.2D-04,  2.4D-02, r^2= 5.4D-01
   Bfn.  Coefficient  Atom+Function         Bfn.  Coefficient  Atom+Function  
  ----- ------------  ---------------      ----- ------------  ---------------
     9     -0.622982  2 H  py                 4     -0.590654  1 H  py         
     8      0.272041  2 H  px                 3      0.256096  1 H  px         
     2      0.032281  1 H  s          

 Vector    7  Occ=5.421303D-05  E= 0.000000D+00
              MO Center= -4.5D-04, -1.4D-04,  1.3D-02, r^2= 6.4D-01
   Bfn.  Coefficient  Atom+Function         Bfn.  Coefficient  Atom+Function  
  ----- ------------  ---------------      ----- ------------  ---------------
    10      0.618385  2 H  pz                 5     -0.592650  1 H  pz         
     1      0.346380  1 H  s                  6      0.333821  2 H  s          
     2     -0.161590  1 H  s                  7     -0.158669  2 H  s          

 Vector    8  Occ=9.827799D-18  E= 0.000000D+00
              MO Center=  2.9D-03, -8.8D-04, -1.3D-02, r^2= 6.1D-01
   Bfn.  Coefficient  Atom+Function         Bfn.  Coefficient  Atom+Function  
  ----- ------------  ---------------      ----- ------------  ---------------
     3     -0.734021  1 H  px                 8      0.722500  2 H  px         
     4      0.235051  1 H  py                 9     -0.216956  2 H  py         
     2     -0.025390  1 H  s          

 Vector    9  Occ=1.925372D-05  E= 0.000000D+00
              MO Center= -1.5D-03, -4.8D-03, -1.5D-02, r^2= 6.1D-01
   Bfn.  Coefficient  Atom+Function         Bfn.  Coefficient  Atom+Function  
  ----- ------------  ---------------      ----- ------------  ---------------
     4      0.739120  1 H  py                 9     -0.716639  2 H  py         
     8     -0.228956  2 H  px                 3      0.222720  1 H  px         
     2      0.052367  1 H  s                  1     -0.042148  1 H  s          
     7     -0.035718  2 H  s          

 Vector   10  Occ=2.606086D-05  E= 0.000000D+00
              MO Center= -1.9D-04,  1.7D-03, -1.3D-02, r^2= 6.6D-01
   Bfn.  Coefficient  Atom+Function         Bfn.  Coefficient  Atom+Function  
  ----- ------------  ---------------      ----- ------------  ---------------
     5     -1.065934  1 H  pz                10     -1.050904  2 H  pz         
     6      0.392946  2 H  s                  1     -0.381993  1 H  s          
     2     -0.276384  1 H  s                  7      0.269584  2 H  s          


                     WFN1 Final Beta Natural Orbital Analysis
                     ----------------------------------------

 Vector    1  Occ=9.978098D-01  E= 0.000000D+00
              MO Center=  1.9D-03,  1.0D-03,  1.2D-03, r^2= 9.0D-01
   Bfn.  Coefficient  Atom+Function         Bfn.  Coefficient  Atom+Function  
  ----- ------------  ---------------      ----- ------------  ---------------
     2     -0.330123  1 H  s                  7     -0.327892  2 H  s          
     6     -0.288646  2 H  s                  1     -0.284179  1 H  s          

 Vector    2  Occ=1.853694D-03  E= 0.000000D+00
              MO Center= -4.6D-03, -3.0D-03, -2.6D-02, r^2= 1.8D+00
   Bfn.  Coefficient  Atom+Function         Bfn.  Coefficient  Atom+Function  
  ----- ------------  ---------------      ----- ------------  ---------------
     2     -1.185657  1 H  s                  7      1.146491  2 H  s          
     6      0.247839  2 H  s                  1     -0.202632  1 H  s          

 Vector    3  Occ=5.947471D-05  E= 0.000000D+00
              MO Center= -1.0D-03, -1.1D-03,  1.7D-02, r^2= 1.5D+00
   Bfn.  Coefficient  Atom+Function         Bfn.  Coefficient  Atom+Function  
  ----- ------------  ---------------      ----- ------------  ---------------
     1     -0.834371  1 H  s                  6     -0.809579  2 H  s          
     7      0.709193  2 H  s                  2      0.657178  1 H  s          
     5     -0.094702  1 H  pz                10      0.092009  2 H  pz         
     8      0.026416  2 H  px         

 Vector    4  Occ=8.181452D-05  E= 0.000000D+00
              MO Center=  3.3D-03,  6.9D-03,  9.8D-03, r^2= 1.6D+00
   Bfn.  Coefficient  Atom+Function         Bfn.  Coefficient  Atom+Function  
  ----- ------------  ---------------      ----- ------------  ---------------
     7      1.314325  2 H  s                  2     -1.303627  1 H  s          
     6     -0.939518  2 H  s                  1      0.928540  1 H  s          
    10     -0.118497  2 H  pz                 5     -0.116565  1 H  pz         
     9     -0.025573  2 H  py         

 Vector    5  Occ=1.753286D-16  E= 0.000000D+00
              MO Center= -9.2D-05, -4.0D-05,  3.0D-03, r^2= 5.4D-01
   Bfn.  Coefficient  Atom+Function         Bfn.  Coefficient  Atom+Function  
  ----- ------------  ---------------      ----- ------------  ---------------
     8     -0.608579  2 H  px                 3     -0.604723  1 H  px         
     9     -0.264657  2 H  py                 4     -0.262927  1 H  py         
     1     -0.041665  1 H  s                  7      0.038986  2 H  s          

 Vector    6  Occ=9.568323D-05  E= 0.000000D+00
              MO Center= -1.9D-04,  4.2D-04,  2.4D-02, r^2= 5.4D-01
   Bfn.  Coefficient  Atom+Function         Bfn.  Coefficient  Atom+Function  
  ----- ------------  ---------------      ----- ------------  ---------------
     9     -0.622982  2 H  py                 4     -0.590654  1 H  py         
     8      0.272041  2 H  px                 3      0.256096  1 H  px         
     2      0.032281  1 H  s          

 Vector    7  Occ=5.421303D-05  E= 0.000000D+00
              MO Center= -4.5D-04, -1.4D-04,  1.3D-02, r^2= 6.4D-01
   Bfn.  Coefficient  Atom+Function         Bfn.  Coefficient  Atom+Function  
  ----- ------------  ---------------      ----- ------------  ---------------
    10      0.618385  2 H  pz                 5     -0.592650  1 H  pz         
     1      0.346380  1 H  s                  6      0.333821  2 H  s          
     2     -0.161590  1 H  s                  7     -0.158669  2 H  s          

 Vector    8  Occ=9.827799D-18  E= 0.000000D+00
              MO Center=  2.9D-03, -8.8D-04, -1.3D-02, r^2= 6.1D-01
   Bfn.  Coefficient  Atom+Function         Bfn.  Coefficient  Atom+Function  
  ----- ------------  ---------------      ----- ------------  ---------------
     3     -0.734021  1 H  px                 8      0.722500  2 H  px         
     4      0.235051  1 H  py                 9     -0.216956  2 H  py         
     2     -0.025390  1 H  s          

 Vector    9  Occ=1.925372D-05  E= 0.000000D+00
              MO Center= -1.5D-03, -4.8D-03, -1.5D-02, r^2= 6.1D-01
   Bfn.  Coefficient  Atom+Function         Bfn.  Coefficient  Atom+Function  
  ----- ------------  ---------------      ----- ------------  ---------------
     4      0.739120  1 H  py                 9     -0.716639  2 H  py         
     8     -0.228956  2 H  px                 3      0.222720  1 H  px         
     2      0.052367  1 H  s                  1     -0.042148  1 H  s          
     7     -0.035718  2 H  s          

 Vector   10  Occ=2.606086D-05  E= 0.000000D+00
              MO Center= -1.9D-04,  1.7D-03, -1.3D-02, r^2= 6.6D-01
   Bfn.  Coefficient  Atom+Function         Bfn.  Coefficient  Atom+Function  
  ----- ------------  ---------------      ----- ------------  ---------------
     5     -1.065934  1 H  pz                10     -1.050904  2 H  pz         
     6      0.392946  2 H  s                  1     -0.381993  1 H  s          
     2     -0.276384  1 H  s                  7      0.269584  2 H  s          


 Task  times  cpu:      202.5s     wall:      263.7s
 Summary of allocated global arrays
-----------------------------------
  No active global arrays



                         GA Statistics for process    0
                         ------------------------------

       create   destroy   get      put      acc     scatter   gather  read&inc
calls:   44       44     5.55e+07 2.54e+04 3.18e+04    0        0       11     
number of processes/call 1.00e+00 1.00e+00 1.00e+00 0.00e+00 0.00e+00
bytes total:             4.44e+10 2.54e+07 3.17e+07 0.00e+00 0.00e+00 8.80e+01
bytes remote:            0.00e+00 0.00e+00 0.00e+00 0.00e+00 0.00e+00 0.00e+00
Max memory consumed for GA by this process: 268000 bytes
MA_summarize_allocated_blocks: starting scan ...
MA_summarize_allocated_blocks: scan completed: 0 heap blocks, 0 stack blocks
MA usage statistics:

	allocation statistics:
					      heap	     stack
					      ----	     -----
	current number of blocks	         0	         0
	maximum number of blocks	        19	        17
	current total bytes		         0	         0
	maximum total bytes		   3205432	  22508664
	maximum total K-bytes		      3206	     22509
	maximum total M-bytes		         4	        23


                                NWChem Input Module
                                -------------------





                                     CITATION
                                     --------
                Please cite the following reference when publishing
                           results obtained with NWChem:

                 M. Valiev, E.J. Bylaska, N. Govind, K. Kowalski,
              T.P. Straatsma, H.J.J. van Dam, D. Wang, J. Nieplocha,
                        E. Apra, T.L. Windus, W.A. de Jong
                 "NWChem: a comprehensive and scalable open-source
                  solution for large scale molecular simulations"
                      Comput. Phys. Commun. 181, 1477 (2010)
                           doi:10.1016/j.cpc.2010.04.018

                                      AUTHORS
                                      -------
          E. Apra, E. J. Bylaska, W. A. de Jong, N. Govind, K. Kowalski,
       T. P. Straatsma, M. Valiev, H. J. J. van Dam, D. Wang, T. L. Windus,
        J. Hammond, J. Autschbach, K. Bhaskaran-Nair, J. Brabec, K. Lopata,
    S. A. Fischer, S. Krishnamoorthy, M. Jacquelin, W. Ma, M. Klemm, O. Villa,
      Y. Chen, V. Anisimov, F. Aquino, S. Hirata, M. T. Hackler, V. Konjkov,
      T. Risthaus, M. Malagoli, A. Marenich, A. Otero-de-la-Roza, J. Mullin,
        P. Nichols, R. Peverati, J. Pittner, Y. Zhao, P.-D. Fan, A. Fonari,
       M. Williamson, R. J. Harrison, J. R. Rehr, M. Dupuis, D. Silverstein,
    D. M. A. Smith, J. Nieplocha, V. Tipparaju, M. Krishnan, B. E. Van Kuiken,
        A. Vazquez-Mayagoitia, L. Jensen, M. Swart, Q. Wu, T. Van Voorhis,
     A. A. Auer, M. Nooijen, L. D. Crosby, E. Brown, G. Cisneros, G. I. Fann,
   H. Fruchtl, J. Garza, K. Hirao, R. A. Kendall, J. A. Nichols, K. Tsemekhman,
    K. Wolinski, J. Anchell, D. E. Bernholdt, P. Borowski, T. Clark, D. Clerc,
   H. Dachsel, M. J. O. Deegan, K. Dyall, D. Elwood, E. Glendening, M. Gutowski,
   A. C. Hess, J. Jaffe, B. G. Johnson, J. Ju, R. Kobayashi, R. Kutteh, Z. Lin,
   R. Littlefield, X. Long, B. Meng, T. Nakajima, S. Niu, L. Pollack, M. Rosing,
   K. Glaesemann, G. Sandrone, M. Stave, H. Taylor, G. Thomas, J. H. van Lenthe,
                               A. T. Wong, Z. Zhang.

 Total times  cpu:      202.5s     wall:      263.7s
