 argument  1 = input-wf.nw



============================== echo of input deck ==============================
echo
start wfn1_dat
geometry units au noautoz
  H 0 0 -1.24434600000000000000
  H 0 0  1.24434600000000000000
  symmetry cs
end
basis
  H library 6-31g**
end
set wfn1:input_vectors "atomic"
set wfn1:solver "monte-carlo"
set wfn1:print_error F
set wfn1:t_initial 0.1
#set wfn1:corr_expr "wfn1_mx"
set wfn1:corr_expr "wfn1c"
set wfn1:t_bath 0.0
set wfn1:maxit  20000
task wfn1 energy
================================================================================


                                         
                                         


              Northwest Computational Chemistry Package (NWChem) 6.8
              ------------------------------------------------------


                    Environmental Molecular Sciences Laboratory
                       Pacific Northwest National Laboratory
                                Richland, WA 99352

                              Copyright (c) 1994-2015
                       Pacific Northwest National Laboratory
                            Battelle Memorial Institute

             NWChem is an open-source computational chemistry package
                        distributed under the terms of the
                      Educational Community License (ECL) 2.0
             A copy of the license is included with this distribution
                              in the LICENSE.TXT file

                                  ACKNOWLEDGMENT
                                  --------------

            This software and its documentation were developed at the
            EMSL at Pacific Northwest National Laboratory, a multiprogram
            national laboratory, operated for the U.S. Department of Energy
            by Battelle under Contract Number DE-AC05-76RL01830. Support
            for this work was provided by the Department of Energy Office
            of Biological and Environmental Research, Office of Basic
            Energy Sciences, and the Office of Advanced Scientific Computing.


           Job information
           ---------------

    hostname        = erato
    program         = ../../../bin/LINUX64/nwchem
    date            = Mon Mar  1 11:58:39 2021

    compiled        = Sun_Feb_28_18:02:42_2021
    source          = /home/hvandam/nwchem-1-wfn1
    nwchem branch   = Development
    nwchem revision = nwchem_on_git-124-gad72d19fff205e319ffbbf2bca37a04ded6ad57b
    ga revision     = nwchem_on_git-124-gad72d19
    use scalapack   = F
    input           = input-wf.nw
    prefix          = wfn1_dat.
    data base       = ./wfn1_dat.db
    status          = startup
    nproc           =        1
    time left       =     -1s



           Memory information
           ------------------

    heap     =   13107200 doubles =    100.0 Mbytes
    stack    =   13107197 doubles =    100.0 Mbytes
    global   =   26214400 doubles =    200.0 Mbytes (distinct from heap & stack)
    total    =   52428797 doubles =    400.0 Mbytes
    verify   = yes
    hardfail = no 


           Directory information
           ---------------------

  0 permanent = .
  0 scratch   = .




                                NWChem Input Module
                                -------------------


 Turning off AUTOSYM since
 SYMMETRY directive was detected!



                             Geometry "geometry" -> ""
                             -------------------------

 Output coordinates in a.u. (scale by  1.000000000 to convert to a.u.)

  No.       Tag          Charge          X              Y              Z
 ---- ---------------- ---------- -------------- -------------- --------------
    1 H                    1.0000     0.00000000     0.00000000    -1.24434600
    2 H                    1.0000     0.00000000     0.00000000     1.24434600

      Atomic Mass 
      ----------- 

      H                  1.007825


 Effective nuclear repulsion energy (a.u.)       0.4018175009

            Nuclear Dipole moment (a.u.) 
            ----------------------------
        X                 Y               Z
 ---------------- ---------------- ----------------
     0.0000000000     0.0000000000     0.0000000000

      Symmetry information
      --------------------

 Group name             Cs        
 Group number              2
 Group order               2
 No. of unique centers     1

      Symmetry unique atoms

     1


            XYZ format geometry
            -------------------
     2
 geometry
 H                     0.00000000     0.00000000    -0.65847959
 H                     0.00000000     0.00000000     0.65847959

                      Basis "ao basis" -> "" (cartesian)
                      -----
  H (Hydrogen)
  ------------
            Exponent  Coefficients 
       -------------- ---------------------------------------------------------
  1 S  1.87311370E+01  0.033495
  1 S  2.82539370E+00  0.234727
  1 S  6.40121700E-01  0.813757

  2 S  1.61277800E-01  1.000000

  3 P  1.10000000E+00  1.000000



 Summary of "ao basis" -> "" (cartesian)
 ------------------------------------------------------------------------------
       Tag                 Description            Shells   Functions and Types
 ---------------- ------------------------------  ------  ---------------------
 H                          6-31g**                  3        5   2s1p



                                NWChem WFN1 Module
                                ------------------



          No. of electrons :     2
           Alpha electrons :     1
            Beta electrons :     1
          Charge           :     0
          Spin multiplicity:     1

 HvD: wfn1_inpdft
 HvD: nquad_task =                     1
 HvD: iangquad   =                     0
 HvD: gridtype   = user      
 HvD: leb        =  T
 HvD: radgrid    = murakn    
 HvD: trunc_neigh=  T
 HvD: lssw       =  T
 HvD: whichssw   = erf1    
 HvD: mxnrad     =                     0
 HvD: mxnang     =                     0
 HVD: wfn1: movecs_in  = atomic                                                                                                                                                                                                                                                          
 HVD: wfn1: movecs_out = ./wfn1_dat.movecs                                                                                                                                                                                                                                               

      Superposition of Atomic Density Guess
      -------------------------------------

 Sum of atomic energies:          -0.99646508

      Non-variational initial energy
      ------------------------------

 Total energy =      -0.749472
 1-e energy   =      -1.783424
 2-e energy   =       0.632135
 HOMO         =      -0.378146
 LUMO         =       0.014256

 iteration              energy           error
 ---------              ------           -----
         0         -1.03257121        0.200000
         1         -1.03446879        0.200000
         2         -1.03466290        0.200000
         3         -1.03495323        0.200000
         4         -1.03507273        0.200000
         5         -1.03531285        0.200000
         6         -1.03595398        0.200000
         7         -1.03605277        0.200000
         8         -1.03625214        0.200000
         9         -1.03638458        0.185175
        10         -1.03656769        0.185175
        11         -1.03724321        0.171449
        12         -1.03754805        0.171449
        13         -1.03755754        0.158740
        14         -1.03775103        0.146973
        15         -1.03806269        0.136079
        16         -1.03807542        0.136079
        17         -1.03810827        0.136079
        18         -1.03830642        0.136079
        19         -1.03854425        0.125992
        20         -1.03866940        0.125992
        21         -1.03868012        0.125992
        22         -1.03878650        0.116653
        23         -1.03906140        0.116653
        24         -1.03910700        0.116653
        25         -1.03914309        0.116653
        26         -1.03918741        0.116653
        27         -1.03930438        0.116653
        28         -1.03931916        0.108006
        29         -1.03944925        0.100000
        30         -1.03951837        0.092587
        31         -1.03958911        0.092587
        32         -1.03975495        0.079370
        33         -1.03979918        0.079370
        34         -1.03982869        0.079370
        35         -1.03986878        0.068040
        36         -1.03992468        0.068040
        37         -1.04003371        0.068040
        38         -1.04009630        0.068040
        39         -1.04014502        0.062996
        40         -1.04014804        0.058326
        41         -1.04016999        0.058326
        42         -1.04019231        0.058326
        43         -1.04019236        0.058326
        44         -1.04023824        0.058326
        45         -1.04023928        0.054003
        46         -1.04027335        0.054003
        47         -1.04032371        0.046294
        48         -1.04033386        0.039685
        49         -1.04034559        0.039685
        50         -1.04035133        0.036743
        51         -1.04035573        0.029163
        52         -1.04035813        0.027001
        53         -1.04037043        0.027001
        54         -1.04037786        0.025000
        55         -1.04038374        0.021431
        56         -1.04038864        0.018372
        57         -1.04039075        0.018372
        58         -1.04039266        0.018372
        59         -1.04039296        0.017010
        60         -1.04040047        0.017010
        61         -1.04040121        0.017010
        62         -1.04040201        0.017010
        63         -1.04040603        0.015749
        64         -1.04040707        0.015749
        65         -1.04041010        0.015749
        66         -1.04041126        0.015749
        67         -1.04041915        0.015749
        68         -1.04042407        0.015749
        69         -1.04042519        0.014582
        70         -1.04042550        0.014582
        71         -1.04042559        0.014582
        72         -1.04042738        0.014582
        73         -1.04043021        0.014582
        74         -1.04043369        0.014582
        75         -1.04043525        0.014582
        76         -1.04043583        0.014582
        77         -1.04043881        0.014582
        78         -1.04044327        0.014582
        79         -1.04044395        0.014582
        80         -1.04044512        0.014582
        81         -1.04044521        0.009921
        82         -1.04044652        0.009921
        83         -1.04044666        0.009921
        84         -1.04044731        0.009921
        85         -1.04044805        0.009921
        86         -1.04045097        0.009186
        87         -1.04045261        0.009186
        88         -1.04045291        0.009186
        89         -1.04045511        0.009186
        90         -1.04045608        0.009186
        91         -1.04045737        0.009186
        92         -1.04045775        0.009186
        93         -1.04045876        0.009186
        94         -1.04045924        0.009186
        95         -1.04046100        0.008505
        96         -1.04046138        0.007875
        97         -1.04046151        0.007875
        98         -1.04046285        0.007875
        99         -1.04046421        0.007875
       100         -1.04046469        0.007875
       101         -1.04046511        0.007875
       102         -1.04046568        0.007875
       103         -1.04046584        0.007875
       104         -1.04046678        0.007291
       105         -1.04046748        0.007291
       106         -1.04046900        0.007291
       107         -1.04046958        0.007291
       108         -1.04047115        0.007291
       109         -1.04047182        0.007291
       110         -1.04047244        0.007291
       111         -1.04047261        0.007291
       112         -1.04047405        0.007291
       113         -1.04047486        0.007291
       114         -1.04047796        0.007291
       115         -1.04047905        0.007291
       116         -1.04047972        0.006250
       117         -1.04048113        0.006250
       118         -1.04048173        0.006250
       119         -1.04048308        0.006250
       120         -1.04048380        0.006250
       121         -1.04048620        0.006250
       122         -1.04048637        0.006250
       123         -1.04048704        0.006250
       124         -1.04048737        0.006250
       125         -1.04048838        0.006250
       126         -1.04048957        0.006250
       127         -1.04048966        0.006250
       128         -1.04049150        0.006250
       129         -1.04049195        0.006250
       130         -1.04049229        0.005787
       131         -1.04049237        0.005787
       132         -1.04049264        0.005787
       133         -1.04049388        0.005787
       134         -1.04049406        0.005787
       135         -1.04049408        0.005787
       136         -1.04049529        0.005787
       137         -1.04049530        0.005787
       138         -1.04049533        0.005358
       139         -1.04049558        0.005358
       140         -1.04049702        0.004961
       141         -1.04049763        0.004961
       142         -1.04049835        0.004961
       143         -1.04049914        0.004961
       144         -1.04049936        0.004961
       145         -1.04049944        0.004961
       146         -1.04050089        0.004961
       147         -1.04050138        0.004961
       148         -1.04050163        0.004961
       149         -1.04050200        0.004961
       150         -1.04050298        0.004961
       151         -1.04050368        0.004961
       152         -1.04050433        0.004961
       153         -1.04050554        0.004961
       154         -1.04050611        0.004961
       155         -1.04050632        0.004961
       156         -1.04050759        0.004961
       157         -1.04050775        0.004961
       158         -1.04051014        0.004961
       159         -1.04051102        0.004961
       160         -1.04051131        0.004961
       161         -1.04051134        0.004961
       162         -1.04051212        0.004961
       163         -1.04051244        0.004593
       164         -1.04051302        0.004593
       165         -1.04051361        0.004593
       166         -1.04051512        0.004593
       167         -1.04051553        0.004593
       168         -1.04051601        0.004593
       169         -1.04051612        0.004593
       170         -1.04051654        0.004593
       171         -1.04051713        0.004593
       172         -1.04051810        0.004593
       173         -1.04051850        0.004593
       174         -1.04051875        0.004593
       175         -1.04051902        0.004593
       176         -1.04051980        0.004593
       177         -1.04052070        0.004593
       178         -1.04052112        0.004593
       179         -1.04052206        0.004593
       180         -1.04052221        0.004593
       181         -1.04052270        0.004593
       182         -1.04052297        0.004593
       183         -1.04052347        0.004593
       184         -1.04052438        0.004593
       185         -1.04052483        0.004593
       186         -1.04052548        0.004593
       187         -1.04052587        0.004593
       188         -1.04052643        0.004593
       189         -1.04052661        0.004593
       190         -1.04052693        0.004593
       191         -1.04052708        0.004593
       192         -1.04052749        0.004593
       193         -1.04052844        0.004593
       194         -1.04052875        0.004593
       195         -1.04052936        0.004593
       196         -1.04053051        0.004593
       197         -1.04053130        0.004593
       198         -1.04053146        0.004593
       199         -1.04053233        0.004593
       200         -1.04053321        0.004593
       201         -1.04053368        0.004593
       202         -1.04053388        0.004593
       203         -1.04053474        0.004593
       204         -1.04053537        0.004593
       205         -1.04053538        0.004593
       206         -1.04053673        0.004593
       207         -1.04053694        0.004593
       208         -1.04053710        0.004252
       209         -1.04053735        0.004252
       210         -1.04053776        0.004252
       211         -1.04053776        0.004252
       212         -1.04053819        0.004252
       213         -1.04053824        0.004252
       214         -1.04053851        0.004252
       215         -1.04053919        0.003645
       216         -1.04053977        0.003645
       217         -1.04054024        0.003645
       218         -1.04054029        0.003645
       219         -1.04054153        0.003645
       220         -1.04054188        0.003645
       221         -1.04054204        0.003645
       222         -1.04054263        0.003645
       223         -1.04054286        0.003645
       224         -1.04054327        0.003645
       225         -1.04054334        0.003645
       226         -1.04054345        0.003645
       227         -1.04054414        0.003645
       228         -1.04054426        0.003645
       229         -1.04054427        0.003645
       230         -1.04054513        0.003645
       231         -1.04054539        0.003645
       232         -1.04054556        0.003645
       233         -1.04054570        0.003645
       234         -1.04054636        0.003645
       235         -1.04054678        0.003645
       236         -1.04054729        0.003645
       237         -1.04054785        0.003645
       238         -1.04054795        0.003645
       239         -1.04054823        0.003645
       240         -1.04054898        0.003645
       241         -1.04054947        0.003645
       242         -1.04054985        0.003645
       243         -1.04055006        0.003645
       244         -1.04055026        0.003645
       245         -1.04055062        0.003645
       246         -1.04055101        0.003645
       247         -1.04055121        0.003645
       248         -1.04055128        0.003645
       249         -1.04055181        0.003645
       250         -1.04055213        0.003645
       251         -1.04055242        0.003645
       252         -1.04055288        0.003645
       253         -1.04055334        0.003645
       254         -1.04055391        0.003645
       255         -1.04055421        0.003645
       256         -1.04055459        0.003645
       257         -1.04055512        0.003645
       258         -1.04055549        0.003645
       259         -1.04055550        0.003645
       260         -1.04055573        0.003645
       261         -1.04055593        0.003645
       262         -1.04055650        0.003645
       263         -1.04055675        0.003645
       264         -1.04055746        0.003645
       265         -1.04055791        0.003645
       266         -1.04055824        0.003645
       267         -1.04055828        0.003645
       268         -1.04055985        0.003645
       269         -1.04056031        0.003645
       270         -1.04056132        0.003645
       271         -1.04056153        0.003645
       272         -1.04056176        0.003645
       273         -1.04056231        0.003645
       274         -1.04056302        0.003645
       275         -1.04056375        0.003645
       276         -1.04056476        0.003645
       277         -1.04056478        0.003645
       278         -1.04056523        0.003645
       279         -1.04056576        0.003645
       280         -1.04056577        0.003645
       281         -1.04056587        0.003645
       282         -1.04056723        0.003375
       283         -1.04056759        0.003375
       284         -1.04056784        0.003375
       285         -1.04056800        0.003375
       286         -1.04056821        0.003375
       287         -1.04056921        0.003375
       288         -1.04056960        0.003375
       289         -1.04056963        0.003375
       290         -1.04057006        0.003375
       291         -1.04057027        0.003375
       292         -1.04057095        0.003375
       293         -1.04057109        0.003375
       294         -1.04057124        0.003375
       295         -1.04057185        0.003375
       296         -1.04057232        0.003375
       297         -1.04057233        0.003125
       298         -1.04057234        0.003125
       299         -1.04057289        0.003125
       300         -1.04057359        0.003125
       301         -1.04057400        0.003125
       302         -1.04057461        0.003125
       303         -1.04057503        0.003125
       304         -1.04057554        0.003125
       305         -1.04057630        0.003125
       306         -1.04057670        0.003125
       307         -1.04057686        0.003125
       308         -1.04057729        0.003125
       309         -1.04057810        0.003125
       310         -1.04057842        0.003125
       311         -1.04057876        0.003125
       312         -1.04057914        0.003125
       313         -1.04057948        0.003125
       314         -1.04057954        0.003125
       315         -1.04057967        0.003125
       316         -1.04057970        0.003125
       317         -1.04058000        0.003125
       318         -1.04058087        0.003125
       319         -1.04058092        0.003125
       320         -1.04058126        0.003125
       321         -1.04058157        0.003125
       322         -1.04058170        0.003125
       323         -1.04058253        0.003125
       324         -1.04058394        0.003125
       325         -1.04058407        0.003125
       326         -1.04058477        0.003125
       327         -1.04058495        0.003125
       328         -1.04058500        0.003125
       329         -1.04058516        0.003125
       330         -1.04058543        0.003125
       331         -1.04058552        0.002893
       332         -1.04058602        0.002893
       333         -1.04058609        0.002893
       334         -1.04058637        0.002893
       335         -1.04058640        0.002893
       336         -1.04058645        0.002893
       337         -1.04058668        0.002893
       338         -1.04058754        0.002893
       339         -1.04058836        0.002893
       340         -1.04058851        0.002893
       341         -1.04058861        0.002893
       342         -1.04058908        0.002893
       343         -1.04058970        0.002893
       344         -1.04059046        0.002893
       345         -1.04059049        0.002893
       346         -1.04059091        0.002893
       347         -1.04059181        0.002893
       348         -1.04059183        0.002893
       349         -1.04059258        0.002893
       350         -1.04059337        0.002893
       351         -1.04059358        0.002893
       352         -1.04059411        0.002893
       353         -1.04059429        0.002893
       354         -1.04059436        0.002893
       355         -1.04059445        0.002893
       356         -1.04059460        0.002893
       357         -1.04059522        0.002893
       358         -1.04059538        0.002893
       359         -1.04059545        0.002893
       360         -1.04059569        0.002893
       361         -1.04059591        0.002893
       362         -1.04059598        0.002893
       363         -1.04059649        0.002893
       364         -1.04059658        0.002893
       365         -1.04059659        0.002893
       366         -1.04059706        0.002893
       367         -1.04059799        0.002893
       368         -1.04059812        0.002893
       369         -1.04059844        0.002893
       370         -1.04059854        0.002893
       371         -1.04059870        0.002893
       372         -1.04059874        0.002893
       373         -1.04059888        0.002893
       374         -1.04059891        0.002893
       375         -1.04059922        0.002893
       376         -1.04059930        0.002893
       377         -1.04060045        0.002893
       378         -1.04060116        0.002893
       379         -1.04060135        0.002893
       380         -1.04060180        0.002893
       381         -1.04060181        0.002893
       382         -1.04060195        0.002893
       383         -1.04060212        0.002893
       384         -1.04060269        0.002893
       385         -1.04060280        0.002893
       386         -1.04060295        0.002893
       387         -1.04060305        0.002893
       388         -1.04060325        0.002893
       389         -1.04060325        0.002893
       390         -1.04060399        0.002893
       391         -1.04060528        0.002893
       392         -1.04060573        0.002893
       393         -1.04060608        0.002893
       394         -1.04060626        0.002893
       395         -1.04060637        0.002893
       396         -1.04060719        0.002893
       397         -1.04060760        0.002893
       398         -1.04060796        0.002893
       399         -1.04060799        0.002893
       400         -1.04060838        0.002893
       401         -1.04060848        0.002893
       402         -1.04060899        0.002893
       403         -1.04060918        0.002893
       404         -1.04060934        0.002893
       405         -1.04060936        0.002893
       406         -1.04061006        0.002893
       407         -1.04061030        0.002893
       408         -1.04061100        0.002893
       409         -1.04061106        0.002893
       410         -1.04061159        0.002893
       411         -1.04061168        0.002893
       412         -1.04061241        0.002893
       413         -1.04061276        0.002893
       414         -1.04061386        0.002893
       415         -1.04061391        0.002893
       416         -1.04061395        0.002893
       417         -1.04061411        0.002893
       418         -1.04061483        0.002893
       419         -1.04061530        0.002893
       420         -1.04061629        0.002893
       421         -1.04061629        0.002893
       422         -1.04061651        0.002893
       423         -1.04061654        0.002893
       424         -1.04061690        0.002893
       425         -1.04061727        0.002893
       426         -1.04061735        0.002893
       427         -1.04061735        0.002893
       428         -1.04061808        0.002893
       429         -1.04061842        0.002893
       430         -1.04061858        0.002893
       431         -1.04061881        0.002893
       432         -1.04061881        0.002893
       433         -1.04061890        0.002893
       434         -1.04061911        0.002893
       435         -1.04061958        0.002893
       436         -1.04062044        0.002893
       437         -1.04062100        0.002893
       438         -1.04062141        0.002893
       439         -1.04062142        0.002893
       440         -1.04062153        0.002893
       441         -1.04062212        0.002893
       442         -1.04062259        0.002893
       443         -1.04062263        0.002893
       444         -1.04062312        0.002893
       445         -1.04062339        0.002893
       446         -1.04062397        0.002893
       447         -1.04062439        0.002893
       448         -1.04062441        0.002893
       449         -1.04062463        0.002893
       450         -1.04062493        0.002893
       451         -1.04062493        0.002893
       452         -1.04062509        0.002893
       453         -1.04062529        0.002893
       454         -1.04062554        0.002893
       455         -1.04062576        0.002893
       456         -1.04062610        0.002893
       457         -1.04062633        0.002893
       458         -1.04062705        0.002893
       459         -1.04062751        0.002893
       460         -1.04062788        0.002893
       461         -1.04062797        0.002893
       462         -1.04062905        0.002893
       463         -1.04062948        0.002893
       464         -1.04062950        0.002893
       465         -1.04063005        0.002679
       466         -1.04063044        0.002679
       467         -1.04063050        0.002679
       468         -1.04063054        0.002679
       469         -1.04063062        0.002679
       470         -1.04063100        0.002679
       471         -1.04063170        0.002679
       472         -1.04063242        0.002679
       473         -1.04063265        0.002679
       474         -1.04063269        0.002679
       475         -1.04063290        0.002679
       476         -1.04063382        0.002679
       477         -1.04063401        0.002679
       478         -1.04063437        0.002679
       479         -1.04063440        0.002679
       480         -1.04063455        0.002679
       481         -1.04063456        0.002679
       482         -1.04063456        0.002679
       483         -1.04063457        0.002679
       484         -1.04063487        0.002679
       485         -1.04063503        0.002679
       486         -1.04063517        0.002679
       487         -1.04063547        0.002679
       488         -1.04063560        0.002679
       489         -1.04063633        0.002679
       490         -1.04063644        0.002679
       491         -1.04063659        0.002679
       492         -1.04063673        0.002679
       493         -1.04063749        0.002679
       494         -1.04063801        0.002679
       495         -1.04063813        0.002679
       496         -1.04063890        0.002679
       497         -1.04063902        0.002679
       498         -1.04063952        0.002679
       499         -1.04063980        0.002679
       500         -1.04063983        0.002679
       501         -1.04063986        0.002679
       502         -1.04063998        0.002679
       503         -1.04064000        0.002679
       504         -1.04064061        0.002679
       505         -1.04064088        0.002679
       506         -1.04064121        0.002679
       507         -1.04064163        0.002679
       508         -1.04064180        0.002679
       509         -1.04064183        0.002679
       510         -1.04064188        0.002679
       511         -1.04064204        0.002679
       512         -1.04064211        0.002679
       513         -1.04064214        0.002679
       514         -1.04064246        0.002679
       515         -1.04064265        0.002679
       516         -1.04064271        0.002480
       517         -1.04064304        0.002480
       518         -1.04064321        0.002480
       519         -1.04064328        0.002480
       520         -1.04064342        0.002480
       521         -1.04064389        0.002480
       522         -1.04064398        0.002480
       523         -1.04064398        0.002480
       524         -1.04064413        0.002296
       525         -1.04064476        0.002296
       526         -1.04064499        0.002296
       527         -1.04064500        0.002296
       528         -1.04064504        0.002296
       529         -1.04064505        0.002296
       530         -1.04064525        0.002296
       531         -1.04064527        0.002296
       532         -1.04064583        0.002296
       533         -1.04064599        0.002296
       534         -1.04064633        0.002296
       535         -1.04064649        0.002296
       536         -1.04064684        0.002296
       537         -1.04064718        0.002296
       538         -1.04064732        0.002296
       539         -1.04064764        0.002296
       540         -1.04064789        0.002296
       541         -1.04064819        0.002296
       542         -1.04064884        0.002296
       543         -1.04064908        0.002296
       544         -1.04064977        0.002296
       545         -1.04065005        0.002296
       546         -1.04065034        0.002296
       547         -1.04065040        0.002296
       548         -1.04065069        0.002296
       549         -1.04065074        0.002296
       550         -1.04065091        0.002296
       551         -1.04065095        0.002296
       552         -1.04065130        0.002296
       553         -1.04065131        0.002296
       554         -1.04065146        0.002296
       555         -1.04065174        0.002296
       556         -1.04065215        0.002296
       557         -1.04065239        0.002296
       558         -1.04065286        0.002296
       559         -1.04065304        0.002296
       560         -1.04065312        0.002296
       561         -1.04065333        0.002296
       562         -1.04065342        0.002296
       563         -1.04065386        0.002296
       564         -1.04065387        0.002296
       565         -1.04065454        0.002296
       566         -1.04065503        0.002296
       567         -1.04065526        0.002296
       568         -1.04065538        0.002296
       569         -1.04065539        0.002296
       570         -1.04065548        0.002296
       571         -1.04065573        0.002296
       572         -1.04065600        0.002296
       573         -1.04065626        0.002296
       574         -1.04065655        0.002296
       575         -1.04065671        0.002296
       576         -1.04065734        0.002296
       577         -1.04065752        0.002296
       578         -1.04065806        0.002296
       579         -1.04065848        0.002296
       580         -1.04065862        0.002296
       581         -1.04065887        0.002296
       582         -1.04065939        0.002296
       583         -1.04065970        0.002296
       584         -1.04065984        0.002296
       585         -1.04066045        0.002296
       586         -1.04066080        0.002296
       587         -1.04066114        0.002296
       588         -1.04066221        0.002296
       589         -1.04066239        0.002296
       590         -1.04066277        0.002296
       591         -1.04066342        0.002296
       592         -1.04066374        0.002296
       593         -1.04066388        0.002296
       594         -1.04066423        0.002296
       595         -1.04066454        0.002296
       596         -1.04066476        0.002296
       597         -1.04066492        0.002296
       598         -1.04066506        0.002296
       599         -1.04066538        0.002296
       600         -1.04066564        0.002296
       601         -1.04066566        0.002296
       602         -1.04066585        0.002296
       603         -1.04066669        0.002296
       604         -1.04066718        0.002296
       605         -1.04066729        0.002296
       606         -1.04066759        0.002296
       607         -1.04066826        0.002296
       608         -1.04066841        0.002296
       609         -1.04066882        0.002296
       610         -1.04066903        0.002296
       611         -1.04066944        0.002296
       612         -1.04067009        0.002296
       613         -1.04067016        0.002296
       614         -1.04067017        0.002296
       615         -1.04067025        0.002296
       616         -1.04067033        0.002296
       617         -1.04067036        0.002296
       618         -1.04067037        0.002296
       619         -1.04067064        0.002296
       620         -1.04067086        0.002296
       621         -1.04067133        0.002296
       622         -1.04067174        0.002296
       623         -1.04067213        0.002296
       624         -1.04067221        0.002296
       625         -1.04067231        0.002296
       626         -1.04067233        0.002296
       627         -1.04067234        0.002296
       628         -1.04067280        0.002296
       629         -1.04067301        0.002296
       630         -1.04067325        0.002296
       631         -1.04067348        0.002296
       632         -1.04067387        0.002296
       633         -1.04067402        0.002296
       634         -1.04067414        0.002296
       635         -1.04067447        0.002296
       636         -1.04067464        0.002296
       637         -1.04067476        0.002296
       638         -1.04067495        0.002296
       639         -1.04067498        0.002296
       640         -1.04067503        0.002296
       641         -1.04067516        0.002296
       642         -1.04067534        0.002296
       643         -1.04067544        0.002296
       644         -1.04067551        0.002296
       645         -1.04067609        0.002296
       646         -1.04067618        0.002296
       647         -1.04067669        0.002296
       648         -1.04067725        0.002296
       649         -1.04067740        0.002296
       650         -1.04067813        0.002296
       651         -1.04067828        0.002296
       652         -1.04067891        0.002296
       653         -1.04067919        0.002296
       654         -1.04067994        0.002296
       655         -1.04068014        0.002296
       656         -1.04068050        0.002296
       657         -1.04068069        0.002296
       658         -1.04068083        0.002296
       659         -1.04068112        0.002296
       660         -1.04068128        0.002296
       661         -1.04068159        0.002296
       662         -1.04068187        0.002296
       663         -1.04068190        0.002296
       664         -1.04068204        0.002296
       665         -1.04068241        0.002296
       666         -1.04068267        0.002296
       667         -1.04068299        0.002296
       668         -1.04068330        0.002296
       669         -1.04068334        0.002296
       670         -1.04068340        0.002296
       671         -1.04068346        0.002296
       672         -1.04068424        0.002296
       673         -1.04068465        0.002296
       674         -1.04068540        0.002296
       675         -1.04068551        0.002296
       676         -1.04068564        0.002296
       677         -1.04068645        0.002296
       678         -1.04068672        0.002296
       679         -1.04068709        0.002296
       680         -1.04068721        0.002296
       681         -1.04068731        0.002296
       682         -1.04068741        0.002296
       683         -1.04068768        0.002296
       684         -1.04068790        0.002296
       685         -1.04068818        0.002296
       686         -1.04068833        0.002296
       687         -1.04068844        0.002296
       688         -1.04068846        0.002296
       689         -1.04068893        0.002296
       690         -1.04068893        0.002296
       691         -1.04068893        0.002296
       692         -1.04068932        0.002296
       693         -1.04068932        0.002296
       694         -1.04068972        0.002296
       695         -1.04069032        0.002296
       696         -1.04069052        0.002296
       697         -1.04069074        0.002296
       698         -1.04069080        0.002296
       699         -1.04069139        0.002296
       700         -1.04069143        0.002296
       701         -1.04069144        0.002296
       702         -1.04069156        0.002296
       703         -1.04069156        0.002296
       704         -1.04069159        0.002296
       705         -1.04069200        0.002296
       706         -1.04069239        0.002296
       707         -1.04069251        0.002296
       708         -1.04069261        0.002296
       709         -1.04069323        0.002296
       710         -1.04069335        0.002296
       711         -1.04069345        0.002296
       712         -1.04069386        0.002296
       713         -1.04069437        0.002296
       714         -1.04069494        0.002296
       715         -1.04069515        0.002296
       716         -1.04069535        0.002296
       717         -1.04069600        0.002296
       718         -1.04069605        0.002296
       719         -1.04069681        0.002296
       720         -1.04069705        0.002296
       721         -1.04069730        0.002296
       722         -1.04069739        0.002296
       723         -1.04069741        0.002296
       724         -1.04069775        0.002296
       725         -1.04069795        0.002296
       726         -1.04069832        0.002296
       727         -1.04069849        0.002296
       728         -1.04069852        0.002296
       729         -1.04069892        0.002296
       730         -1.04069912        0.002126
       731         -1.04069918        0.002126
       732         -1.04069936        0.002126
       733         -1.04069952        0.002126
       734         -1.04069975        0.002126
       735         -1.04069999        0.002126
       736         -1.04070014        0.002126
       737         -1.04070047        0.002126
       738         -1.04070069        0.002126
       739         -1.04070089        0.002126
       740         -1.04070107        0.002126
       741         -1.04070127        0.002126
       742         -1.04070146        0.002126
       743         -1.04070187        0.002126
       744         -1.04070210        0.002126
       745         -1.04070247        0.002126
       746         -1.04070274        0.002126
       747         -1.04070292        0.002126
       748         -1.04070309        0.002126
       749         -1.04070317        0.002126
       750         -1.04070322        0.002126
       751         -1.04070366        0.002126
       752         -1.04070379        0.002126
       753         -1.04070413        0.002126
       754         -1.04070420        0.002126
       755         -1.04070431        0.002126
       756         -1.04070448        0.002126
       757         -1.04070522        0.002126
       758         -1.04070528        0.002126
       759         -1.04070577        0.002126
       760         -1.04070594        0.002126
       761         -1.04070601        0.002126
       762         -1.04070632        0.002126
       763         -1.04070642        0.002126
       764         -1.04070648        0.002126
       765         -1.04070678        0.002126
       766         -1.04070692        0.002126
       767         -1.04070698        0.002126
       768         -1.04070711        0.002126
       769         -1.04070738        0.002126
       770         -1.04070767        0.002126
       771         -1.04070768        0.002126
       772         -1.04070772        0.002126
       773         -1.04070774        0.002126
       774         -1.04070807        0.002126
       775         -1.04070819        0.002126
       776         -1.04070837        0.002126
       777         -1.04070880        0.002126
       778         -1.04070889        0.002126
       779         -1.04070923        0.002126
       780         -1.04070965        0.002126
       781         -1.04071000        0.002126
       782         -1.04071000        0.002126
       783         -1.04071063        0.002126
       784         -1.04071091        0.002126
       785         -1.04071101        0.002126
       786         -1.04071104        0.002126
       787         -1.04071127        0.002126
       788         -1.04071139        0.002126
       789         -1.04071161        0.002126
       790         -1.04071190        0.002126
       791         -1.04071197        0.002126
       792         -1.04071206        0.002126
       793         -1.04071268        0.002126
       794         -1.04071331        0.002126
       795         -1.04071336        0.002126
       796         -1.04071338        0.002126
       797         -1.04071383        0.002126
       798         -1.04071383        0.002126
       799         -1.04071424        0.002126
       800         -1.04071429        0.002126
       801         -1.04071451        0.002126
       802         -1.04071469        0.002126
       803         -1.04071474        0.002126
       804         -1.04071525        0.002126
       805         -1.04071546        0.001969
       806         -1.04071547        0.001969
       807         -1.04071598        0.001969
       808         -1.04071625        0.001969
       809         -1.04071627        0.001969
       810         -1.04071635        0.001969
       811         -1.04071660        0.001969
       812         -1.04071669        0.001969
       813         -1.04071742        0.001969
       814         -1.04071743        0.001969
       815         -1.04071743        0.001969
       816         -1.04071749        0.001969
       817         -1.04071755        0.001969
       818         -1.04071783        0.001969
       819         -1.04071819        0.001969
       820         -1.04071836        0.001969
       821         -1.04071870        0.001969
       822         -1.04071901        0.001969
       823         -1.04071910        0.001969
       824         -1.04071914        0.001969
       825         -1.04071920        0.001969
       826         -1.04071950        0.001969
       827         -1.04071985        0.001969
       828         -1.04071999        0.001969
       829         -1.04072022        0.001969
       830         -1.04072100        0.001969
       831         -1.04072109        0.001969
       832         -1.04072125        0.001969
       833         -1.04072137        0.001969
       834         -1.04072152        0.001969
       835         -1.04072152        0.001969
       836         -1.04072209        0.001969
       837         -1.04072238        0.001969
       838         -1.04072271        0.001969
       839         -1.04072283        0.001969
       840         -1.04072285        0.001969
       841         -1.04072297        0.001969
       842         -1.04072306        0.001969
       843         -1.04072316        0.001969
       844         -1.04072322        0.001969
       845         -1.04072335        0.001969
       846         -1.04072354        0.001969
       847         -1.04072389        0.001969
       848         -1.04072420        0.001969
       849         -1.04072423        0.001969
       850         -1.04072431        0.001969
       851         -1.04072488        0.001969
       852         -1.04072505        0.001969
       853         -1.04072545        0.001969
       854         -1.04072571        0.001969
       855         -1.04072593        0.001969
       856         -1.04072619        0.001969
       857         -1.04072622        0.001969
       858         -1.04072630        0.001969
       859         -1.04072666        0.001969
       860         -1.04072685        0.001969
       861         -1.04072731        0.001969
       862         -1.04072739        0.001969
       863         -1.04072744        0.001969
       864         -1.04072801        0.001969
       865         -1.04072808        0.001969
       866         -1.04072825        0.001969
       867         -1.04072839        0.001969
       868         -1.04072851        0.001969
       869         -1.04072867        0.001969
       870         -1.04072869        0.001969
       871         -1.04072873        0.001969
       872         -1.04072882        0.001969
       873         -1.04072903        0.001969
       874         -1.04072919        0.001969
       875         -1.04072933        0.001969
       876         -1.04072955        0.001969
       877         -1.04072976        0.001969
       878         -1.04072981        0.001969
       879         -1.04072982        0.001969
       880         -1.04073002        0.001969
       881         -1.04073014        0.001969
       882         -1.04073028        0.001969
       883         -1.04073071        0.001969
       884         -1.04073122        0.001969
       885         -1.04073131        0.001969
       886         -1.04073131        0.001969
       887         -1.04073148        0.001969
       888         -1.04073159        0.001969
       889         -1.04073168        0.001969
       890         -1.04073179        0.001969
       891         -1.04073185        0.001969
       892         -1.04073203        0.001969
       893         -1.04073226        0.001969
       894         -1.04073231        0.001969
       895         -1.04073233        0.001969
       896         -1.04073240        0.001969
       897         -1.04073260        0.001969
       898         -1.04073278        0.001969
       899         -1.04073307        0.001969
       900         -1.04073320        0.001969
       901         -1.04073325        0.001969
       902         -1.04073378        0.001969
       903         -1.04073382        0.001969
       904         -1.04073389        0.001969
       905         -1.04073432        0.001969
       906         -1.04073443        0.001969
       907         -1.04073444        0.001969
       908         -1.04073482        0.001969
       909         -1.04073483        0.001969
       910         -1.04073503        0.001969
       911         -1.04073509        0.001969
       912         -1.04073524        0.001969
       913         -1.04073559        0.001969
       914         -1.04073559        0.001969
       915         -1.04073597        0.001969
       916         -1.04073633        0.001969
       917         -1.04073645        0.001969
       918         -1.04073667        0.001969
       919         -1.04073686        0.001969
       920         -1.04073725        0.001969
       921         -1.04073739        0.001969
       922         -1.04073762        0.001969
       923         -1.04073776        0.001969
       924         -1.04073786        0.001969
       925         -1.04073803        0.001969
       926         -1.04073819        0.001969
       927         -1.04073841        0.001969
       928         -1.04073885        0.001969
       929         -1.04073919        0.001969
       930         -1.04073924        0.001969
       931         -1.04073938        0.001969
       932         -1.04073957        0.001969
       933         -1.04073988        0.001969
       934         -1.04074021        0.001969
       935         -1.04074070        0.001969
       936         -1.04074071        0.001969
       937         -1.04074082        0.001969
       938         -1.04074104        0.001969
       939         -1.04074144        0.001969
       940         -1.04074179        0.001969
       941         -1.04074209        0.001969
       942         -1.04074241        0.001969
       943         -1.04074247        0.001969
       944         -1.04074249        0.001969
       945         -1.04074252        0.001969
       946         -1.04074264        0.001969
       947         -1.04074268        0.001969
       948         -1.04074273        0.001969
       949         -1.04074274        0.001969
       950         -1.04074305        0.001969
       951         -1.04074346        0.001969
       952         -1.04074380        0.001969
       953         -1.04074389        0.001969
       954         -1.04074406        0.001969
       955         -1.04074419        0.001969
       956         -1.04074466        0.001969
       957         -1.04074489        0.001969
       958         -1.04074527        0.001969
       959         -1.04074538        0.001969
       960         -1.04074557        0.001969
       961         -1.04074570        0.001969
       962         -1.04074602        0.001969
       963         -1.04074609        0.001969
       964         -1.04074681        0.001969
       965         -1.04074724        0.001969
       966         -1.04074755        0.001969
       967         -1.04074776        0.001969
       968         -1.04074799        0.001823
       969         -1.04074813        0.001823
       970         -1.04074822        0.001823
       971         -1.04074838        0.001823
       972         -1.04074850        0.001823
       973         -1.04074873        0.001823
       974         -1.04074883        0.001823
       975         -1.04074887        0.001823
       976         -1.04074911        0.001823
       977         -1.04074924        0.001823
       978         -1.04074931        0.001823
       979         -1.04074946        0.001823
       980         -1.04074962        0.001823
       981         -1.04074970        0.001823
       982         -1.04075020        0.001823
       983         -1.04075031        0.001823
       984         -1.04075045        0.001823
       985         -1.04075086        0.001823
       986         -1.04075112        0.001823
       987         -1.04075125        0.001823
       988         -1.04075143        0.001823
       989         -1.04075183        0.001823
       990         -1.04075195        0.001823
       991         -1.04075197        0.001823
       992         -1.04075211        0.001823
       993         -1.04075246        0.001823
       994         -1.04075307        0.001823
       995         -1.04075315        0.001823
       996         -1.04075337        0.001823
       997         -1.04075354        0.001823
       998         -1.04075375        0.001823
       999         -1.04075409        0.001823
      1000         -1.04075431        0.001823
      1001         -1.04075440        0.001688
      1002         -1.04075447        0.001688
      1003         -1.04075453        0.001688
      1004         -1.04075454        0.001688
      1005         -1.04075467        0.001688
      1006         -1.04075473        0.001688
      1007         -1.04075483        0.001688
      1008         -1.04075492        0.001688
      1009         -1.04075523        0.001688
      1010         -1.04075553        0.001688
      1011         -1.04075562        0.001688
      1012         -1.04075563        0.001688
      1013         -1.04075571        0.001688
      1014         -1.04075576        0.001688
      1015         -1.04075588        0.001688
      1016         -1.04075600        0.001688
      1017         -1.04075638        0.001688
      1018         -1.04075644        0.001688
      1019         -1.04075654        0.001688
      1020         -1.04075664        0.001688
      1021         -1.04075674        0.001688
      1022         -1.04075703        0.001688
      1023         -1.04075719        0.001688
      1024         -1.04075775        0.001688
      1025         -1.04075817        0.001688
      1026         -1.04075853        0.001688
      1027         -1.04075863        0.001688
      1028         -1.04075865        0.001688
      1029         -1.04075875        0.001688
      1030         -1.04075904        0.001688
      1031         -1.04075932        0.001688
      1032         -1.04075938        0.001688
      1033         -1.04075953        0.001688
      1034         -1.04075986        0.001688
      1035         -1.04075988        0.001688
      1036         -1.04076004        0.001688
      1037         -1.04076009        0.001688
      1038         -1.04076030        0.001688
      1039         -1.04076045        0.001688
      1040         -1.04076057        0.001688
      1041         -1.04076090        0.001688
      1042         -1.04076108        0.001688
      1043         -1.04076120        0.001688
      1044         -1.04076135        0.001688
      1045         -1.04076145        0.001688
      1046         -1.04076178        0.001688
      1047         -1.04076190        0.001688
      1048         -1.04076213        0.001688
      1049         -1.04076227        0.001688
      1050         -1.04076249        0.001688
      1051         -1.04076299        0.001688
      1052         -1.04076331        0.001688
      1053         -1.04076336        0.001688
      1054         -1.04076343        0.001688
      1055         -1.04076375        0.001688
      1056         -1.04076387        0.001688
      1057         -1.04076427        0.001688
      1058         -1.04076480        0.001688
      1059         -1.04076497        0.001688
      1060         -1.04076518        0.001688
      1061         -1.04076530        0.001688
      1062         -1.04076532        0.001688
      1063         -1.04076570        0.001688
      1064         -1.04076585        0.001688
      1065         -1.04076618        0.001688
      1066         -1.04076648        0.001688
      1067         -1.04076656        0.001688
      1068         -1.04076684        0.001688
      1069         -1.04076694        0.001688
      1070         -1.04076722        0.001688
      1071         -1.04076760        0.001688
      1072         -1.04076800        0.001688
      1073         -1.04076806        0.001688
      1074         -1.04076838        0.001688
      1075         -1.04076844        0.001688
      1076         -1.04076855        0.001688
      1077         -1.04076868        0.001688
      1078         -1.04076882        0.001688
      1079         -1.04076899        0.001688
      1080         -1.04076923        0.001688
      1081         -1.04076928        0.001688
      1082         -1.04076961        0.001688
      1083         -1.04076968        0.001688
      1084         -1.04076979        0.001688
      1085         -1.04076996        0.001688
      1086         -1.04077003        0.001688
      1087         -1.04077014        0.001688
      1088         -1.04077015        0.001688
      1089         -1.04077054        0.001688
      1090         -1.04077066        0.001688
      1091         -1.04077070        0.001688
      1092         -1.04077086        0.001688
      1093         -1.04077087        0.001688
      1094         -1.04077094        0.001688
      1095         -1.04077112        0.001688
      1096         -1.04077122        0.001688
      1097         -1.04077147        0.001688
      1098         -1.04077152        0.001688
      1099         -1.04077188        0.001688
      1100         -1.04077199        0.001688
      1101         -1.04077233        0.001688
      1102         -1.04077240        0.001688
      1103         -1.04077243        0.001688
      1104         -1.04077245        0.001688
      1105         -1.04077277        0.001688
      1106         -1.04077293        0.001688
      1107         -1.04077299        0.001688
      1108         -1.04077336        0.001688
      1109         -1.04077364        0.001688
      1110         -1.04077425        0.001688
      1111         -1.04077439        0.001688
      1112         -1.04077451        0.001688
      1113         -1.04077469        0.001688
      1114         -1.04077476        0.001688
      1115         -1.04077508        0.001688
      1116         -1.04077514        0.001688
      1117         -1.04077544        0.001688
      1118         -1.04077561        0.001688
      1119         -1.04077587        0.001688
      1120         -1.04077598        0.001688
      1121         -1.04077608        0.001688
      1122         -1.04077630        0.001688
      1123         -1.04077652        0.001688
      1124         -1.04077668        0.001688
      1125         -1.04077701        0.001688
      1126         -1.04077733        0.001688
      1127         -1.04077746        0.001688
      1128         -1.04077747        0.001688
      1129         -1.04077782        0.001688
      1130         -1.04077806        0.001688
      1131         -1.04077813        0.001688
      1132         -1.04077845        0.001688
      1133         -1.04077879        0.001688
      1134         -1.04077895        0.001688
      1135         -1.04077898        0.001688
      1136         -1.04077899        0.001688
      1137         -1.04077912        0.001688
      1138         -1.04077913        0.001688
      1139         -1.04077934        0.001688
      1140         -1.04077952        0.001688
      1141         -1.04077959        0.001688
      1142         -1.04077979        0.001688
      1143         -1.04077980        0.001688
      1144         -1.04077981        0.001688
      1145         -1.04078018        0.001688
      1146         -1.04078022        0.001688
      1147         -1.04078047        0.001688
      1148         -1.04078079        0.001688
      1149         -1.04078096        0.001688
      1150         -1.04078101        0.001688
      1151         -1.04078102        0.001688
      1152         -1.04078137        0.001688
      1153         -1.04078141        0.001688
      1154         -1.04078167        0.001688
      1155         -1.04078171        0.001688
      1156         -1.04078174        0.001688
      1157         -1.04078180        0.001688
      1158         -1.04078190        0.001688
      1159         -1.04078215        0.001688
      1160         -1.04078219        0.001688
      1161         -1.04078252        0.001688
      1162         -1.04078289        0.001688
      1163         -1.04078290        0.001688
      1164         -1.04078312        0.001688
      1165         -1.04078331        0.001688
      1166         -1.04078380        0.001688
      1167         -1.04078409        0.001688
      1168         -1.04078410        0.001688
      1169         -1.04078418        0.001688
      1170         -1.04078442        0.001688
      1171         -1.04078486        0.001688
      1172         -1.04078514        0.001688
      1173         -1.04078523        0.001688
      1174         -1.04078561        0.001688
      1175         -1.04078564        0.001688
      1176         -1.04078606        0.001688
      1177         -1.04078626        0.001688
      1178         -1.04078657        0.001688
      1179         -1.04078662        0.001688
      1180         -1.04078674        0.001688
      1181         -1.04078685        0.001688
      1182         -1.04078694        0.001688
      1183         -1.04078699        0.001688
      1184         -1.04078705        0.001688
      1185         -1.04078715        0.001688
      1186         -1.04078729        0.001688
      1187         -1.04078742        0.001688
      1188         -1.04078746        0.001688
      1189         -1.04078795        0.001688
      1190         -1.04078803        0.001688
      1191         -1.04078848        0.001688
      1192         -1.04078850        0.001688
      1193         -1.04078874        0.001688
      1194         -1.04078887        0.001688
      1195         -1.04078931        0.001688
      1196         -1.04078957        0.001688
      1197         -1.04078987        0.001688
      1198         -1.04078988        0.001688
      1199         -1.04078995        0.001688
      1200         -1.04079022        0.001688
      1201         -1.04079062        0.001688
      1202         -1.04079066        0.001688
      1203         -1.04079071        0.001688
      1204         -1.04079087        0.001688
      1205         -1.04079098        0.001688
      1206         -1.04079117        0.001688
      1207         -1.04079148        0.001688
      1208         -1.04079185        0.001688
      1209         -1.04079208        0.001688
      1210         -1.04079209        0.001688
      1211         -1.04079221        0.001688
      1212         -1.04079243        0.001688
      1213         -1.04079261        0.001688
      1214         -1.04079270        0.001688
      1215         -1.04079290        0.001688
      1216         -1.04079330        0.001688
      1217         -1.04079350        0.001688
      1218         -1.04079379        0.001688
      1219         -1.04079382        0.001688
      1220         -1.04079398        0.001688
      1221         -1.04079409        0.001688
      1222         -1.04079444        0.001688
      1223         -1.04079446        0.001688
      1224         -1.04079463        0.001688
      1225         -1.04079480        0.001688
      1226         -1.04079503        0.001688
      1227         -1.04079511        0.001688
      1228         -1.04079518        0.001688
      1229         -1.04079528        0.001688
      1230         -1.04079554        0.001688
      1231         -1.04079577        0.001688
      1232         -1.04079611        0.001688
      1233         -1.04079620        0.001688
      1234         -1.04079633        0.001688
      1235         -1.04079645        0.001688
      1236         -1.04079680        0.001688
      1237         -1.04079689        0.001688
      1238         -1.04079716        0.001688
      1239         -1.04079720        0.001688
      1240         -1.04079728        0.001688
      1241         -1.04079742        0.001688
      1242         -1.04079761        0.001688
      1243         -1.04079775        0.001688
      1244         -1.04079784        0.001688
      1245         -1.04079786        0.001688
      1246         -1.04079790        0.001688
      1247         -1.04079797        0.001688
      1248         -1.04079836        0.001688
      1249         -1.04079840        0.001688
      1250         -1.04079851        0.001688
      1251         -1.04079882        0.001688
      1252         -1.04079905        0.001688
      1253         -1.04079910        0.001688
      1254         -1.04079911        0.001688
      1255         -1.04079912        0.001688
      1256         -1.04079942        0.001688
      1257         -1.04079948        0.001688
      1258         -1.04079950        0.001688
      1259         -1.04079956        0.001688
      1260         -1.04079966        0.001688
      1261         -1.04079983        0.001688
      1262         -1.04079986        0.001688
      1263         -1.04079990        0.001688
      1264         -1.04080042        0.001688
      1265         -1.04080046        0.001688
      1266         -1.04080085        0.001688
      1267         -1.04080099        0.001688
      1268         -1.04080108        0.001688
      1269         -1.04080122        0.001688
      1270         -1.04080154        0.001688
      1271         -1.04080154        0.001688
      1272         -1.04080155        0.001688
      1273         -1.04080185        0.001688
      1274         -1.04080221        0.001688
      1275         -1.04080265        0.001688
      1276         -1.04080279        0.001688
      1277         -1.04080286        0.001688
      1278         -1.04080328        0.001688
      1279         -1.04080335        0.001688
      1280         -1.04080335        0.001688
      1281         -1.04080338        0.001688
      1282         -1.04080348        0.001688
      1283         -1.04080350        0.001688
      1284         -1.04080365        0.001688
      1285         -1.04080419        0.001688
      1286         -1.04080420        0.001688
      1287         -1.04080444        0.001688
      1288         -1.04080468        0.001688
      1289         -1.04080486        0.001688
      1290         -1.04080506        0.001688
      1291         -1.04080525        0.001688
      1292         -1.04080564        0.001688
      1293         -1.04080568        0.001688
      1294         -1.04080590        0.001688
      1295         -1.04080592        0.001688
      1296         -1.04080594        0.001688
      1297         -1.04080622        0.001688
      1298         -1.04080629        0.001688
      1299         -1.04080655        0.001688
      1300         -1.04080696        0.001688
      1301         -1.04080707        0.001688
      1302         -1.04080748        0.001688
      1303         -1.04080749        0.001688
      1304         -1.04080757        0.001688
      1305         -1.04080772        0.001688
      1306         -1.04080773        0.001688
      1307         -1.04080785        0.001688
      1308         -1.04080789        0.001688
      1309         -1.04080827        0.001688
      1310         -1.04080830        0.001688
      1311         -1.04080855        0.001688
      1312         -1.04080863        0.001688
      1313         -1.04080876        0.001688
      1314         -1.04080879        0.001688
      1315         -1.04080894        0.001688
      1316         -1.04080897        0.001688
      1317         -1.04080909        0.001688
      1318         -1.04080931        0.001688
      1319         -1.04080964        0.001688
      1320         -1.04080969        0.001688
      1321         -1.04080976        0.001688
      1322         -1.04080991        0.001688
      1323         -1.04080994        0.001688
      1324         -1.04081004        0.001688
      1325         -1.04081028        0.001688
      1326         -1.04081034        0.001688
      1327         -1.04081039        0.001688
      1328         -1.04081081        0.001688
      1329         -1.04081130        0.001688
      1330         -1.04081152        0.001688
      1331         -1.04081168        0.001688
      1332         -1.04081179        0.001688
      1333         -1.04081197        0.001688
      1334         -1.04081218        0.001688
      1335         -1.04081230        0.001688
      1336         -1.04081245        0.001688
      1337         -1.04081272        0.001688
      1338         -1.04081285        0.001688
      1339         -1.04081290        0.001688
      1340         -1.04081297        0.001688
      1341         -1.04081317        0.001688
      1342         -1.04081336        0.001688
      1343         -1.04081362        0.001688
      1344         -1.04081374        0.001688
      1345         -1.04081408        0.001688
      1346         -1.04081422        0.001688
      1347         -1.04081434        0.001688
      1348         -1.04081444        0.001688
      1349         -1.04081450        0.001688
      1350         -1.04081455        0.001688
      1351         -1.04081465        0.001688
      1352         -1.04081469        0.001688
      1353         -1.04081482        0.001688
      1354         -1.04081492        0.001688
      1355         -1.04081497        0.001688
      1356         -1.04081505        0.001688
      1357         -1.04081528        0.001688
      1358         -1.04081529        0.001688
      1359         -1.04081559        0.001688
      1360         -1.04081566        0.001688
      1361         -1.04081585        0.001688
      1362         -1.04081622        0.001688
      1363         -1.04081633        0.001688
      1364         -1.04081658        0.001688
      1365         -1.04081664        0.001688
      1366         -1.04081665        0.001688
      1367         -1.04081703        0.001688
      1368         -1.04081723        0.001688
      1369         -1.04081749        0.001688
      1370         -1.04081757        0.001688
      1371         -1.04081760        0.001688
      1372         -1.04081766        0.001688
      1373         -1.04081804        0.001688
      1374         -1.04081828        0.001688
      1375         -1.04081839        0.001688
      1376         -1.04081847        0.001688
      1377         -1.04081856        0.001688
      1378         -1.04081885        0.001688
      1379         -1.04081902        0.001688
      1380         -1.04081943        0.001688
      1381         -1.04081949        0.001688
      1382         -1.04081982        0.001688
      1383         -1.04081982        0.001688
      1384         -1.04082010        0.001688
      1385         -1.04082022        0.001688
      1386         -1.04082030        0.001688
      1387         -1.04082048        0.001688
      1388         -1.04082060        0.001688
      1389         -1.04082066        0.001688
      1390         -1.04082102        0.001688
      1391         -1.04082102        0.001688
      1392         -1.04082104        0.001688
      1393         -1.04082150        0.001688
      1394         -1.04082179        0.001688
      1395         -1.04082187        0.001688
      1396         -1.04082188        0.001688
      1397         -1.04082212        0.001688
      1398         -1.04082213        0.001688
      1399         -1.04082217        0.001688
      1400         -1.04082217        0.001688
      1401         -1.04082243        0.001688
      1402         -1.04082255        0.001688
      1403         -1.04082272        0.001688
      1404         -1.04082277        0.001688
      1405         -1.04082282        0.001688
      1406         -1.04082315        0.001688
      1407         -1.04082368        0.001688
      1408         -1.04082385        0.001688
      1409         -1.04082407        0.001688
      1410         -1.04082408        0.001688
      1411         -1.04082414        0.001688
      1412         -1.04082433        0.001688
      1413         -1.04082444        0.001688
      1414         -1.04082458        0.001688
      1415         -1.04082477        0.001688
      1416         -1.04082506        0.001688
      1417         -1.04082522        0.001688
      1418         -1.04082549        0.001688
      1419         -1.04082560        0.001688
      1420         -1.04082565        0.001688
      1421         -1.04082592        0.001688
      1422         -1.04082592        0.001688
      1423         -1.04082611        0.001688
      1424         -1.04082626        0.001688
      1425         -1.04082663        0.001688
      1426         -1.04082676        0.001688
      1427         -1.04082677        0.001688
      1428         -1.04082689        0.001688
      1429         -1.04082730        0.001563
      1430         -1.04082746        0.001563
      1431         -1.04082761        0.001563
      1432         -1.04082787        0.001563
      1433         -1.04082802        0.001563
      1434         -1.04082827        0.001563
      1435         -1.04082867        0.001563
      1436         -1.04082885        0.001563
      1437         -1.04082895        0.001563
      1438         -1.04082912        0.001563
      1439         -1.04082922        0.001563
      1440         -1.04082927        0.001563
      1441         -1.04082938        0.001563
      1442         -1.04082948        0.001563
      1443         -1.04082950        0.001563
      1444         -1.04082952        0.001563
      1445         -1.04082979        0.001563
      1446         -1.04082999        0.001563
      1447         -1.04083002        0.001563
      1448         -1.04083004        0.001563
      1449         -1.04083004        0.001563
      1450         -1.04083010        0.001563
      1451         -1.04083029        0.001563
      1452         -1.04083053        0.001563
      1453         -1.04083081        0.001563
      1454         -1.04083104        0.001563
      1455         -1.04083114        0.001563
      1456         -1.04083136        0.001563
      1457         -1.04083161        0.001563
      1458         -1.04083184        0.001563
      1459         -1.04083219        0.001563
      1460         -1.04083229        0.001563
      1461         -1.04083248        0.001563
      1462         -1.04083251        0.001563
      1463         -1.04083264        0.001563
      1464         -1.04083280        0.001563
      1465         -1.04083290        0.001563
      1466         -1.04083311        0.001563
      1467         -1.04083312        0.001563
      1468         -1.04083315        0.001563
      1469         -1.04083357        0.001563
      1470         -1.04083379        0.001563
      1471         -1.04083389        0.001563
      1472         -1.04083396        0.001563
      1473         -1.04083418        0.001563
      1474         -1.04083426        0.001563
      1475         -1.04083427        0.001563
      1476         -1.04083429        0.001563
      1477         -1.04083440        0.001563
      1478         -1.04083446        0.001563
      1479         -1.04083449        0.001563
      1480         -1.04083460        0.001563
      1481         -1.04083492        0.001563
      1482         -1.04083493        0.001563
      1483         -1.04083497        0.001563
      1484         -1.04083503        0.001563
      1485         -1.04083515        0.001563
      1486         -1.04083524        0.001563
      1487         -1.04083534        0.001563
      1488         -1.04083541        0.001563
      1489         -1.04083543        0.001563
      1490         -1.04083549        0.001563
      1491         -1.04083557        0.001563
      1492         -1.04083564        0.001563
      1493         -1.04083587        0.001563
      1494         -1.04083588        0.001563
      1495         -1.04083592        0.001563
      1496         -1.04083599        0.001563
      1497         -1.04083614        0.001563
      1498         -1.04083658        0.001563
      1499         -1.04083663        0.001563
      1500         -1.04083669        0.001563
      1501         -1.04083682        0.001563
      1502         -1.04083702        0.001563
      1503         -1.04083716        0.001563
      1504         -1.04083727        0.001563
      1505         -1.04083761        0.001563
      1506         -1.04083778        0.001563
      1507         -1.04083796        0.001563
      1508         -1.04083798        0.001563
      1509         -1.04083822        0.001563
      1510         -1.04083849        0.001563
      1511         -1.04083857        0.001563
      1512         -1.04083864        0.001563
      1513         -1.04083872        0.001563
      1514         -1.04083884        0.001563
      1515         -1.04083895        0.001563
      1516         -1.04083915        0.001563
      1517         -1.04083920        0.001563
      1518         -1.04083973        0.001563
      1519         -1.04083988        0.001563
      1520         -1.04083990        0.001563
      1521         -1.04084004        0.001563
      1522         -1.04084010        0.001563
      1523         -1.04084011        0.001563
      1524         -1.04084018        0.001563
      1525         -1.04084023        0.001563
      1526         -1.04084065        0.001563
      1527         -1.04084076        0.001563
      1528         -1.04084080        0.001563
      1529         -1.04084090        0.001563
      1530         -1.04084132        0.001563
      1531         -1.04084146        0.001563
      1532         -1.04084188        0.001563
      1533         -1.04084191        0.001563
      1534         -1.04084214        0.001563
      1535         -1.04084219        0.001563
      1536         -1.04084221        0.001563
      1537         -1.04084245        0.001563
      1538         -1.04084251        0.001563
      1539         -1.04084265        0.001563
      1540         -1.04084281        0.001563
      1541         -1.04084309        0.001563
      1542         -1.04084319        0.001563
      1543         -1.04084329        0.001563
      1544         -1.04084345        0.001563
      1545         -1.04084345        0.001563
      1546         -1.04084346        0.001563
      1547         -1.04084352        0.001563
      1548         -1.04084357        0.001563
      1549         -1.04084366        0.001563
      1550         -1.04084387        0.001563
      1551         -1.04084387        0.001563
[...]
   2       0.06554,    0.06780     0.77665,    0.61721    -0.01040,   -0.00551    -0.01046,    0.02274    -0.00048,   -0.02803    -0.02667,   -0.03632
   3      -0.01578,    0.01606    -0.01489,   -0.01353    -0.52290,    0.49327    -0.50244,    0.47049     0.01557,   -0.04346     0.00780,    0.02933
   4       0.00966,   -0.01431    -0.01811,   -0.01096     0.09449,   -0.68054    -0.10188,    0.71041    -0.05520,    0.03396    -0.02995,    0.02049
   5       0.01236,   -0.00733     0.00624,   -0.01552     0.05073,    0.01931    -0.01375,    0.04486     0.82458,    0.40118    -0.33817,   -0.17204
   6      -0.00498,   -0.01540    -0.00205,    0.05450     0.03652,    0.00221    -0.03719,   -0.01493    -0.00228,    0.26387     0.01008,    0.62698
   7      -0.00949,    0.00991     0.00102,   -0.03694     0.00884,   -0.03986    -0.02360,    0.02417     0.14531,   -0.19448     0.45671,   -0.42377
   8      -0.00235,    0.01262    -0.01075,   -0.02755     0.03226,   -0.02244     0.00472,   -0.03805     0.02397,    0.07929     0.18898,    0.06939
   9      -0.01433,    0.00442     0.00530,   -0.01070    -0.01707,    0.00963     0.01236,    0.05455     0.04445,    0.11993     0.08678,    0.14624
  10       0.00454,   -0.00917     0.02440,    0.01491     0.04090,   -0.02855     0.00294,    0.02950    -0.00938,    0.00951    -0.00701,   -0.00539

                     7                       8                       9                      10  
       ----------------------- ----------------------- ----------------------- -----------------------
   1      -0.00305,   -0.00442     0.01650,   -0.00907     0.00569,    0.00693     0.00086,   -0.01124
   2      -0.03045,    0.00159     0.03571,    0.01108     0.00326,    0.00980     0.02818,   -0.01274
   3      -0.01939,   -0.01624     0.02208,   -0.00583     0.02291,    0.05325    -0.00908,    0.02992
   4      -0.01892,   -0.04165     0.00578,   -0.02710    -0.00588,    0.03544     0.02783,   -0.04097
   5      -0.03463,    0.01021    -0.05457,    0.05523     0.01749,    0.04301    -0.00148,   -0.00714
   6      -0.01402,    0.67606    -0.01965,   -0.19313     0.02416,    0.18641    -0.02288,   -0.01395
   7      -0.48983,    0.47251    -0.14317,    0.14402    -0.18833,    0.09288    -0.00062,   -0.00135
   8      -0.17531,   -0.09706     0.53673,    0.40381     0.55124,    0.38991     0.03126,   -0.01958
   9       0.13584,    0.12401     0.47709,    0.48078    -0.47650,   -0.48023     0.02075,   -0.01181
  10      -0.02080,   -0.01175     0.03702,    0.02679     0.00299,    0.00192    -0.85186,    0.51684

                   WFN1 Final beta Correlation Function Analysis
                   ---------------------------------------------


 global array: Cb[1:10,1:10],  handle: -980 

                     1                       2                       3                       4                       5                       6  
       ----------------------- ----------------------- ----------------------- ----------------------- ----------------------- -----------------------
   1      -0.76690,   -0.63326     0.07818,    0.04943     0.02201,    0.01429    -0.00105,    0.00899    -0.00626,    0.00237    -0.01063,   -0.02779
   2       0.06554,    0.06780     0.77665,    0.61721    -0.01040,   -0.00551    -0.01046,    0.02274    -0.00048,   -0.02803    -0.02667,   -0.03632
   3      -0.01578,    0.01606    -0.01489,   -0.01353    -0.52290,    0.49327    -0.50244,    0.47049     0.01557,   -0.04346     0.00780,    0.02933
   4       0.00966,   -0.01431    -0.01811,   -0.01096     0.09449,   -0.68054    -0.10188,    0.71041    -0.05520,    0.03396    -0.02995,    0.02049
   5       0.01236,   -0.00733     0.00624,   -0.01552     0.05073,    0.01931    -0.01375,    0.04486     0.82458,    0.40118    -0.33817,   -0.17204
   6      -0.00498,   -0.01540    -0.00205,    0.05450     0.03652,    0.00221    -0.03719,   -0.01493    -0.00228,    0.26387     0.01008,    0.62698
   7      -0.00949,    0.00991     0.00102,   -0.03694     0.00884,   -0.03986    -0.02360,    0.02417     0.14531,   -0.19448     0.45671,   -0.42377
   8      -0.00235,    0.01262    -0.01075,   -0.02755     0.03226,   -0.02244     0.00472,   -0.03805     0.02397,    0.07929     0.18898,    0.06939
   9      -0.01433,    0.00442     0.00530,   -0.01070    -0.01707,    0.00963     0.01236,    0.05455     0.04445,    0.11993     0.08678,    0.14624
  10       0.00454,   -0.00917     0.02440,    0.01491     0.04090,   -0.02855     0.00294,    0.02950    -0.00938,    0.00951    -0.00701,   -0.00539

                     7                       8                       9                      10  
       ----------------------- ----------------------- ----------------------- -----------------------
   1      -0.00305,   -0.00442     0.01650,   -0.00907     0.00569,    0.00693     0.00086,   -0.01124
   2      -0.03045,    0.00159     0.03571,    0.01108     0.00326,    0.00980     0.02818,   -0.01274
   3      -0.01939,   -0.01624     0.02208,   -0.00583     0.02291,    0.05325    -0.00908,    0.02992
   4      -0.01892,   -0.04165     0.00578,   -0.02710    -0.00588,    0.03544     0.02783,   -0.04097
   5      -0.03463,    0.01021    -0.05457,    0.05523     0.01749,    0.04301    -0.00148,   -0.00714
   6      -0.01402,    0.67606    -0.01965,   -0.19313     0.02416,    0.18641    -0.02288,   -0.01395
   7      -0.48983,    0.47251    -0.14317,    0.14402    -0.18833,    0.09288    -0.00062,   -0.00135
   8      -0.17531,   -0.09706     0.53673,    0.40381     0.55124,    0.38991     0.03126,   -0.01958
   9       0.13584,    0.12401     0.47709,    0.48078    -0.47650,   -0.48023     0.02075,   -0.01181
  10      -0.02080,   -0.01175     0.03702,    0.02679     0.00299,    0.00192    -0.85186,    0.51684

                     WFN1 Final Alpha Natural Orbital Analysis
                     -----------------------------------------

 Vector    1  Occ=9.891525D-01  E= 0.000000D+00
              MO Center=  1.1D-05, -1.0D-05, -2.7D-04, r^2= 1.1D+00
   Bfn.  Coefficient  Atom+Function         Bfn.  Coefficient  Atom+Function  
  ----- ------------  ---------------      ----- ------------  ---------------
     2     -0.386992  1 H  s                  7     -0.386605  2 H  s          
     1     -0.252760  1 H  s                  6     -0.252735  2 H  s          

 Vector    2  Occ=8.891743D-03  E= 0.000000D+00
              MO Center= -1.2D-04,  3.9D-04, -1.9D-03, r^2= 1.3D+00
   Bfn.  Coefficient  Atom+Function         Bfn.  Coefficient  Atom+Function  
  ----- ------------  ---------------      ----- ------------  ---------------
     2      0.574005  1 H  s                  7     -0.572964  2 H  s          
     1      0.441233  1 H  s                  6     -0.442347  2 H  s          
     5     -0.032633  1 H  pz                10     -0.029534  2 H  pz         

 Vector    3  Occ=5.068015D-04  E= 0.000000D+00
              MO Center=  7.3D-04, -9.4D-04,  5.0D-02, r^2= 1.6D+00
   Bfn.  Coefficient  Atom+Function         Bfn.  Coefficient  Atom+Function  
  ----- ------------  ---------------      ----- ------------  ---------------
     6     -0.946511  2 H  s                  1     -0.904632  1 H  s          
     7      0.736953  2 H  s                  2      0.656382  1 H  s          
     5     -0.035553  1 H  pz         

 Vector    4  Occ=2.979695D-04  E= 0.000000D+00
              MO Center=  1.7D-03,  9.0D-05, -4.6D-02, r^2= 2.4D+00
   Bfn.  Coefficient  Atom+Function         Bfn.  Coefficient  Atom+Function  
  ----- ------------  ---------------      ----- ------------  ---------------
     2     -1.346197  1 H  s                  7      1.307480  2 H  s          
     1      0.856673  1 H  s                  6     -0.814475  2 H  s          
    10     -0.086035  2 H  pz                 3      0.031655  1 H  px         
     5     -0.030410  1 H  pz         

 Vector    5  Occ=2.063916D-04  E= 0.000000D+00
              MO Center= -4.1D-04,  7.7D-04, -2.2D-04, r^2= 7.8D-01
   Bfn.  Coefficient  Atom+Function         Bfn.  Coefficient  Atom+Function  
  ----- ------------  ---------------      ----- ------------  ---------------
     5      0.654507  1 H  pz                10     -0.645234  2 H  pz         
     1     -0.112406  1 H  s                  7     -0.080733  2 H  s          
     6     -0.046207  2 H  s                  4     -0.039811  1 H  py         
     8      0.034018  2 H  px                 2      0.032436  1 H  s          

 Vector    6  Occ=2.620021D-04  E= 0.000000D+00
              MO Center= -1.8D-04,  2.4D-04,  3.4D-03, r^2= 7.4D-01
   Bfn.  Coefficient  Atom+Function         Bfn.  Coefficient  Atom+Function  
  ----- ------------  ---------------      ----- ------------  ---------------
     4     -0.612872  1 H  py                 9     -0.601193  2 H  py         
     8      0.352885  2 H  px                 3      0.325166  1 H  px         

 Vector    7  Occ=1.883375D-04  E= 0.000000D+00
              MO Center= -1.9D-04, -1.1D-04, -9.2D-03, r^2= 7.4D-01
   Bfn.  Coefficient  Atom+Function         Bfn.  Coefficient  Atom+Function  
  ----- ------------  ---------------      ----- ------------  ---------------
     3      0.613331  1 H  px                 8      0.598875  2 H  px         
     9      0.341469  2 H  py                 4      0.336174  1 H  py         
     2      0.054171  1 H  s                  7     -0.049127  2 H  s          
    10      0.045840  2 H  pz                 5      0.042171  1 H  pz         
     1     -0.026397  1 H  s          

 Vector    8  Occ=1.647561D-04  E= 0.000000D+00
              MO Center= -2.8D-03, -1.5D-03,  9.6D-03, r^2= 7.7D-01
   Bfn.  Coefficient  Atom+Function         Bfn.  Coefficient  Atom+Function  
  ----- ------------  ---------------      ----- ------------  ---------------
     3     -0.628574  1 H  px                 8      0.621717  2 H  px         
     9      0.368031  2 H  py                 4     -0.336969  1 H  py         
    10      0.046022  2 H  pz                 1      0.031254  1 H  s          
     2     -0.028305  1 H  s          

 Vector    9  Occ=2.249148D-04  E= 0.000000D+00
              MO Center= -8.6D-04,  1.5D-03, -3.4D-03, r^2= 7.7D-01
   Bfn.  Coefficient  Atom+Function         Bfn.  Coefficient  Atom+Function  
  ----- ------------  ---------------      ----- ------------  ---------------
     4     -0.630060  1 H  py                 9      0.622014  2 H  py         
     8     -0.357238  2 H  px                 3      0.349500  1 H  px         

 Vector   10  Occ=1.046163D-04  E= 0.000000D+00
              MO Center=  2.1D-03, -4.2D-04, -1.7D-03, r^2= 7.8D-01
   Bfn.  Coefficient  Atom+Function         Bfn.  Coefficient  Atom+Function  
  ----- ------------  ---------------      ----- ------------  ---------------
     5      0.811938  1 H  pz                10      0.815083  2 H  pz         
     2      0.275987  1 H  s                  7     -0.252068  2 H  s          
     6     -0.070532  2 H  s                  8     -0.051070  2 H  px         
     1      0.039174  1 H  s          


                     WFN1 Final Beta Natural Orbital Analysis
                     ----------------------------------------

 Vector    1  Occ=9.891525D-01  E= 0.000000D+00
              MO Center=  1.1D-05, -1.0D-05, -2.7D-04, r^2= 1.1D+00
   Bfn.  Coefficient  Atom+Function         Bfn.  Coefficient  Atom+Function  
  ----- ------------  ---------------      ----- ------------  ---------------
     2     -0.386992  1 H  s                  7     -0.386605  2 H  s          
     1     -0.252760  1 H  s                  6     -0.252735  2 H  s          

 Vector    2  Occ=8.891743D-03  E= 0.000000D+00
              MO Center= -1.2D-04,  3.9D-04, -1.9D-03, r^2= 1.3D+00
   Bfn.  Coefficient  Atom+Function         Bfn.  Coefficient  Atom+Function  
  ----- ------------  ---------------      ----- ------------  ---------------
     2      0.574005  1 H  s                  7     -0.572964  2 H  s          
     1      0.441233  1 H  s                  6     -0.442347  2 H  s          
     5     -0.032633  1 H  pz                10     -0.029534  2 H  pz         

 Vector    3  Occ=5.068015D-04  E= 0.000000D+00
              MO Center=  7.3D-04, -9.4D-04,  5.0D-02, r^2= 1.6D+00
   Bfn.  Coefficient  Atom+Function         Bfn.  Coefficient  Atom+Function  
  ----- ------------  ---------------      ----- ------------  ---------------
     6     -0.946511  2 H  s                  1     -0.904632  1 H  s          
     7      0.736953  2 H  s                  2      0.656382  1 H  s          
     5     -0.035553  1 H  pz         

 Vector    4  Occ=2.979695D-04  E= 0.000000D+00
              MO Center=  1.7D-03,  9.0D-05, -4.6D-02, r^2= 2.4D+00
   Bfn.  Coefficient  Atom+Function         Bfn.  Coefficient  Atom+Function  
  ----- ------------  ---------------      ----- ------------  ---------------
     2     -1.346197  1 H  s                  7      1.307480  2 H  s          
     1      0.856673  1 H  s                  6     -0.814475  2 H  s          
    10     -0.086035  2 H  pz                 3      0.031655  1 H  px         
     5     -0.030410  1 H  pz         

 Vector    5  Occ=2.063916D-04  E= 0.000000D+00
              MO Center= -4.1D-04,  7.7D-04, -2.2D-04, r^2= 7.8D-01
   Bfn.  Coefficient  Atom+Function         Bfn.  Coefficient  Atom+Function  
  ----- ------------  ---------------      ----- ------------  ---------------
     5      0.654507  1 H  pz                10     -0.645234  2 H  pz         
     1     -0.112406  1 H  s                  7     -0.080733  2 H  s          
     6     -0.046207  2 H  s                  4     -0.039811  1 H  py         
     8      0.034018  2 H  px                 2      0.032436  1 H  s          

 Vector    6  Occ=2.620021D-04  E= 0.000000D+00
              MO Center= -1.8D-04,  2.4D-04,  3.4D-03, r^2= 7.4D-01
   Bfn.  Coefficient  Atom+Function         Bfn.  Coefficient  Atom+Function  
  ----- ------------  ---------------      ----- ------------  ---------------
     4     -0.612872  1 H  py                 9     -0.601193  2 H  py         
     8      0.352885  2 H  px                 3      0.325166  1 H  px         

 Vector    7  Occ=1.883375D-04  E= 0.000000D+00
              MO Center= -1.9D-04, -1.1D-04, -9.2D-03, r^2= 7.4D-01
   Bfn.  Coefficient  Atom+Function         Bfn.  Coefficient  Atom+Function  
  ----- ------------  ---------------      ----- ------------  ---------------
     3      0.613331  1 H  px                 8      0.598875  2 H  px         
     9      0.341469  2 H  py                 4      0.336174  1 H  py         
     2      0.054171  1 H  s                  7     -0.049127  2 H  s          
    10      0.045840  2 H  pz                 5      0.042171  1 H  pz         
     1     -0.026397  1 H  s          

 Vector    8  Occ=1.647561D-04  E= 0.000000D+00
              MO Center= -2.8D-03, -1.5D-03,  9.6D-03, r^2= 7.7D-01
   Bfn.  Coefficient  Atom+Function         Bfn.  Coefficient  Atom+Function  
  ----- ------------  ---------------      ----- ------------  ---------------
     3     -0.628574  1 H  px                 8      0.621717  2 H  px         
     9      0.368031  2 H  py                 4     -0.336969  1 H  py         
    10      0.046022  2 H  pz                 1      0.031254  1 H  s          
     2     -0.028305  1 H  s          

 Vector    9  Occ=2.249148D-04  E= 0.000000D+00
              MO Center= -8.6D-04,  1.5D-03, -3.4D-03, r^2= 7.7D-01
   Bfn.  Coefficient  Atom+Function         Bfn.  Coefficient  Atom+Function  
  ----- ------------  ---------------      ----- ------------  ---------------
     4     -0.630060  1 H  py                 9      0.622014  2 H  py         
     8     -0.357238  2 H  px                 3      0.349500  1 H  px         

 Vector   10  Occ=1.046163D-04  E= 0.000000D+00
              MO Center=  2.1D-03, -4.2D-04, -1.7D-03, r^2= 7.8D-01
   Bfn.  Coefficient  Atom+Function         Bfn.  Coefficient  Atom+Function  
  ----- ------------  ---------------      ----- ------------  ---------------
     5      0.811938  1 H  pz                10      0.815083  2 H  pz         
     2      0.275987  1 H  s                  7     -0.252068  2 H  s          
     6     -0.070532  2 H  s                  8     -0.051070  2 H  px         
     1      0.039174  1 H  s          


 Task  times  cpu:     3094.1s     wall:     3840.1s
 Summary of allocated global arrays
-----------------------------------
  No active global arrays



                         GA Statistics for process    0
                         ------------------------------

       create   destroy   get      put      acc     scatter   gather  read&inc
calls:   44       44     9.91e+08 4.25e+05 5.65e+05    0        0       11     
number of processes/call 1.00e+00 1.00e+00 1.00e+00 0.00e+00 0.00e+00
bytes total:             7.93e+11 4.52e+08 5.65e+08 0.00e+00 0.00e+00 8.80e+01
bytes remote:            0.00e+00 0.00e+00 0.00e+00 0.00e+00 0.00e+00 0.00e+00
Max memory consumed for GA by this process: 268000 bytes
MA_summarize_allocated_blocks: starting scan ...
MA_summarize_allocated_blocks: scan completed: 0 heap blocks, 0 stack blocks
MA usage statistics:

	allocation statistics:
					      heap	     stack
					      ----	     -----
	current number of blocks	         0	         0
	maximum number of blocks	        19	        17
	current total bytes		         0	         0
	maximum total bytes		   3205416	  22508616
	maximum total K-bytes		      3206	     22509
	maximum total M-bytes		         4	        23


                                NWChem Input Module
                                -------------------





                                     CITATION
                                     --------
                Please cite the following reference when publishing
                           results obtained with NWChem:

                 M. Valiev, E.J. Bylaska, N. Govind, K. Kowalski,
              T.P. Straatsma, H.J.J. van Dam, D. Wang, J. Nieplocha,
                        E. Apra, T.L. Windus, W.A. de Jong
                 "NWChem: a comprehensive and scalable open-source
                  solution for large scale molecular simulations"
                      Comput. Phys. Commun. 181, 1477 (2010)
                           doi:10.1016/j.cpc.2010.04.018

                                      AUTHORS
                                      -------
          E. Apra, E. J. Bylaska, W. A. de Jong, N. Govind, K. Kowalski,
       T. P. Straatsma, M. Valiev, H. J. J. van Dam, D. Wang, T. L. Windus,
        J. Hammond, J. Autschbach, K. Bhaskaran-Nair, J. Brabec, K. Lopata,
    S. A. Fischer, S. Krishnamoorthy, M. Jacquelin, W. Ma, M. Klemm, O. Villa,
      Y. Chen, V. Anisimov, F. Aquino, S. Hirata, M. T. Hackler, V. Konjkov,
      T. Risthaus, M. Malagoli, A. Marenich, A. Otero-de-la-Roza, J. Mullin,
        P. Nichols, R. Peverati, J. Pittner, Y. Zhao, P.-D. Fan, A. Fonari,
       M. Williamson, R. J. Harrison, J. R. Rehr, M. Dupuis, D. Silverstein,
    D. M. A. Smith, J. Nieplocha, V. Tipparaju, M. Krishnan, B. E. Van Kuiken,
        A. Vazquez-Mayagoitia, L. Jensen, M. Swart, Q. Wu, T. Van Voorhis,
     A. A. Auer, M. Nooijen, L. D. Crosby, E. Brown, G. Cisneros, G. I. Fann,
   H. Fruchtl, J. Garza, K. Hirao, R. A. Kendall, J. A. Nichols, K. Tsemekhman,
    K. Wolinski, J. Anchell, D. E. Bernholdt, P. Borowski, T. Clark, D. Clerc,
   H. Dachsel, M. J. O. Deegan, K. Dyall, D. Elwood, E. Glendening, M. Gutowski,
   A. C. Hess, J. Jaffe, B. G. Johnson, J. Ju, R. Kobayashi, R. Kutteh, Z. Lin,
   R. Littlefield, X. Long, B. Meng, T. Nakajima, S. Niu, L. Pollack, M. Rosing,
   K. Glaesemann, G. Sandrone, M. Stave, H. Taylor, G. Thomas, J. H. van Lenthe,
                               A. T. Wong, Z. Zhang.

 Total times  cpu:     3094.1s     wall:     3840.2s
