 argument  1 = input-wf.nw



============================== echo of input deck ==============================
echo
start wfn1_dat
geometry units au noautoz
  H 0 0 -5.24434600000000000000
  H 0 0  5.24434600000000000000
  symmetry cs
end
basis
  H library 6-31g
end
set wfn1:input_vectors "atomic"
set wfn1:solver "monte-carlo"
set wfn1:print_error F
set wfn1:t_initial 0.1
#set wfn1:corr_expr "wfn1_mx"
set wfn1:corr_expr "wfn1c"
set wfn1:t_bath 0.0
set wfn1:maxit  20000
task wfn1 energy
================================================================================


                                         
                                         


              Northwest Computational Chemistry Package (NWChem) 6.8
              ------------------------------------------------------


                    Environmental Molecular Sciences Laboratory
                       Pacific Northwest National Laboratory
                                Richland, WA 99352

                              Copyright (c) 1994-2015
                       Pacific Northwest National Laboratory
                            Battelle Memorial Institute

             NWChem is an open-source computational chemistry package
                        distributed under the terms of the
                      Educational Community License (ECL) 2.0
             A copy of the license is included with this distribution
                              in the LICENSE.TXT file

                                  ACKNOWLEDGMENT
                                  --------------

            This software and its documentation were developed at the
            EMSL at Pacific Northwest National Laboratory, a multiprogram
            national laboratory, operated for the U.S. Department of Energy
            by Battelle under Contract Number DE-AC05-76RL01830. Support
            for this work was provided by the Department of Energy Office
            of Biological and Environmental Research, Office of Basic
            Energy Sciences, and the Office of Advanced Scientific Computing.


           Job information
           ---------------

    hostname        = erato
    program         = ../../../bin/LINUX64/nwchem
    date            = Mon Mar  1 01:54:51 2021

    compiled        = Sun_Feb_28_18:02:42_2021
    source          = /home/hvandam/nwchem-1-wfn1
    nwchem branch   = Development
    nwchem revision = nwchem_on_git-124-gad72d19fff205e319ffbbf2bca37a04ded6ad57b
    ga revision     = nwchem_on_git-124-gad72d19
    use scalapack   = F
    input           = input-wf.nw
    prefix          = wfn1_dat.
    data base       = ./wfn1_dat.db
    status          = startup
    nproc           =        1
    time left       =     -1s



           Memory information
           ------------------

    heap     =   13107200 doubles =    100.0 Mbytes
    stack    =   13107197 doubles =    100.0 Mbytes
    global   =   26214400 doubles =    200.0 Mbytes (distinct from heap & stack)
    total    =   52428797 doubles =    400.0 Mbytes
    verify   = yes
    hardfail = no 


           Directory information
           ---------------------

  0 permanent = .
  0 scratch   = .




                                NWChem Input Module
                                -------------------


 Turning off AUTOSYM since
 SYMMETRY directive was detected!



                             Geometry "geometry" -> ""
                             -------------------------

 Output coordinates in a.u. (scale by  1.000000000 to convert to a.u.)

  No.       Tag          Charge          X              Y              Z
 ---- ---------------- ---------- -------------- -------------- --------------
    1 H                    1.0000     0.00000000     0.00000000    -5.24434600
    2 H                    1.0000     0.00000000     0.00000000     5.24434600

      Atomic Mass 
      ----------- 

      H                  1.007825


 Effective nuclear repulsion energy (a.u.)       0.0953407727

            Nuclear Dipole moment (a.u.) 
            ----------------------------
        X                 Y               Z
 ---------------- ---------------- ----------------
     0.0000000000     0.0000000000     0.0000000000

      Symmetry information
      --------------------

 Group name             Cs        
 Group number              2
 Group order               2
 No. of unique centers     1

      Symmetry unique atoms

     1


            XYZ format geometry
            -------------------
     2
 geometry
 H                     0.00000000     0.00000000    -2.77518859
 H                     0.00000000     0.00000000     2.77518859

                      Basis "ao basis" -> "" (cartesian)
                      -----
  H (Hydrogen)
  ------------
            Exponent  Coefficients 
       -------------- ---------------------------------------------------------
  1 S  1.87311370E+01  0.033495
  1 S  2.82539370E+00  0.234727
  1 S  6.40121700E-01  0.813757

  2 S  1.61277800E-01  1.000000



 Summary of "ao basis" -> "" (cartesian)
 ------------------------------------------------------------------------------
       Tag                 Description            Shells   Functions and Types
 ---------------- ------------------------------  ------  ---------------------
 H                           6-31g                   2        2   2s



                                NWChem WFN1 Module
                                ------------------



          No. of electrons :     2
           Alpha electrons :     1
            Beta electrons :     1
          Charge           :     0
          Spin multiplicity:     1

 HvD: wfn1_inpdft
 HvD: nquad_task =                     1
 HvD: iangquad   =                     0
 HvD: gridtype   = user      
 HvD: leb        =  T
 HvD: radgrid    = murakn    
 HvD: trunc_neigh=  T
 HvD: lssw       =  T
 HvD: whichssw   = erf1    
 HvD: mxnrad     =                     0
 HvD: mxnang     =                     0
 HVD: wfn1: movecs_in  = atomic                                                                                                                                                                                                                                                          
 HVD: wfn1: movecs_out = ./wfn1_dat.movecs                                                                                                                                                                                                                                               

      Superposition of Atomic Density Guess
      -------------------------------------

 Sum of atomic energies:          -0.99646508

      Non-variational initial energy
      ------------------------------

 Total energy =      -0.682110
 1-e energy   =      -1.187147
 2-e energy   =       0.409697
 HOMO         =      -0.191279
 LUMO         =      -0.191092

 iteration              energy           error
 ---------              ------           -----
         0         -0.86682876        0.080000
         1         -0.87116426        0.080000
         2         -0.87424623        0.080000
         3         -0.87524539        0.080000
         4         -0.88248911        0.080000
         5         -0.88411873        0.080000
         6         -0.88481623        0.080000
         7         -0.89049363        0.080000
         8         -0.89424516        0.080000
         9         -0.89635559        0.080000
        10         -0.89850575        0.080000
        11         -0.90169838        0.080000
        12         -0.90587251        0.080000
        13         -0.91002777        0.080000
        14         -0.91231952        0.080000
        15         -0.91388820        0.080000
        16         -0.91697884        0.080000
        17         -0.91846966        0.080000
        18         -0.91913355        0.080000
        19         -0.91917055        0.080000
        20         -0.92025202        0.080000
        21         -0.92237493        0.080000
        22         -0.92243318        0.080000
        23         -0.92314636        0.080000
        24         -0.92552418        0.080000
        25         -0.92677492        0.080000
        26         -0.92680668        0.080000
        27         -0.92743141        0.080000
        28         -0.92835697        0.080000
        29         -0.92880961        0.080000
        30         -0.92919046        0.080000
        31         -0.92956747        0.080000
        32         -0.92958280        0.080000
        33         -0.92997983        0.080000
        34         -0.93013017        0.080000
        35         -0.93033948        0.080000
        36         -0.93045600        0.080000
        37         -0.93053272        0.080000
        38         -0.93059942        0.080000
        39         -0.93070659        0.080000
        40         -0.93073273        0.080000
        41         -0.93073851        0.080000
        42         -0.93076376        0.063496
        43         -0.93077600        0.050397
        44         -0.93079339        0.050397
        45         -0.93080160        0.050397
        46         -0.93081052        0.050397
        47         -0.93082956        0.040000
        48         -0.93082959        0.040000
        49         -0.93084058        0.040000
        50         -0.93084433        0.031748
        51         -0.93084537        0.031748
        52         -0.93084685        0.031748
        53         -0.93085022        0.031748
        54         -0.93085435        0.031748
        55         -0.93086129        0.031748
        56         -0.93086710        0.031748
        57         -0.93087677        0.031748
        58         -0.93087894        0.020000
        59         -0.93088126        0.012599
        60         -0.93088208        0.010000
        61         -0.93088239        0.010000
        62         -0.93088288        0.010000
        63         -0.93088389        0.010000
        64         -0.93088408        0.007937
        65         -0.93088416        0.007937
        66         -0.93088439        0.006300
        67         -0.93088462        0.006300
        68         -0.93088489        0.006300
        69         -0.93088505        0.003969
        70         -0.93088510        0.003969
        71         -0.93088522        0.003969
        72         -0.93088523        0.003969
        73         -0.93088527        0.003969
        74         -0.93088537        0.003969
        75         -0.93088540        0.001984
        76         -0.93088541        0.001984
        77         -0.93088546        0.001984
        78         -0.93088549        0.001984
        79         -0.93088551        0.001984
        80         -0.93088554        0.001984
        81         -0.93088561        0.001984
        82         -0.93088561        0.001984
        83         -0.93088565        0.001984
        84         -0.93088569        0.001984
        85         -0.93088570        0.001984
        86         -0.93088573        0.001575
        87         -0.93088574        0.001575
        88         -0.93088576        0.001250
        89         -0.93088578        0.001250
        90         -0.93088578        0.001250
        91         -0.93088578        0.001250
        92         -0.93088579        0.000992
        93         -0.93088580        0.000992
        94         -0.93088580        0.000992
        95         -0.93088580        0.000787
        96         -0.93088582        0.000787
        97         -0.93088583        0.000787
        98         -0.93088583        0.000787
        99         -0.93088584        0.000625
       100         -0.93088584        0.000496
       101         -0.93088584        0.000496
       102         -0.93088584        0.000496
       103         -0.93088584        0.000496
       104         -0.93088585        0.000394
       105         -0.93088585        0.000313
       106         -0.93088585        0.000313
       107         -0.93088585        0.000313
       108         -0.93088585        0.000248
       109         -0.93088585        0.000248
       110         -0.93088585        0.000248
       111         -0.93088585        0.000248
       112         -0.93088585        0.000248
       113         -0.93088585        0.000197
       114         -0.93088585        0.000197
       115         -0.93088585        0.000197
       116         -0.93088585        0.000197
       117         -0.93088585        0.000197
       118         -0.93088585        0.000197
       119         -0.93088585        0.000197
       120         -0.93088585        0.000197
       121         -0.93088585        0.000156
       122         -0.93088585        0.000156
       123         -0.93088586        0.000156
       124         -0.93088586        0.000156
       125         -0.93088586        0.000124
       126         -0.93088586        0.000124
       127         -0.93088586        0.000124
       128         -0.93088586        0.000124
       129         -0.93088586        0.000124
       130         -0.93088586        0.000124
       131         -0.93088586        0.000098
       132         -0.93088586        0.000062
       133         -0.93088586        0.000062
       134         -0.93088586        0.000062
       135         -0.93088586        0.000062
       136         -0.93088586        0.000049
       137         -0.93088586        0.000049
       138         -0.93088586        0.000049
       139         -0.93088586        0.000039
       140         -0.93088586        0.000031
       141         -0.93088586        0.000031
       142         -0.93088586        0.000031
       143         -0.93088586        0.000031
       144         -0.93088586        0.000031
       145         -0.93088586        0.000031
       146         -0.93088586        0.000031
       147         -0.93088586        0.000031
       148         -0.93088586        0.000031
       149         -0.93088586        0.000020
       150         -0.93088586        0.000016
       151         -0.93088586        0.000012
       152         -0.93088586        0.000012
       153         -0.93088586        0.000012
       154         -0.93088586        0.000012
       155         -0.93088586        0.000012
       156         -0.93088586        0.000010
       157         -0.93088586        0.000008
       158         -0.93088586        0.000008
       159         -0.93088586        0.000008
       160         -0.93088586        0.000006
       161         -0.93088586        0.000006
       162         -0.93088586        0.000005
       163         -0.93088586        0.000003
       164         -0.93088586        0.000002
       165         -0.93088586        0.000002
       166         -0.93088586        0.000002
       167         -0.93088586        0.000002
       168         -0.93088586        0.000002
       169         -0.93088586        0.000002
       170         -0.93088586        0.000002
       171         -0.93088586        0.000002
       172         -0.93088586        0.000002
       173         -0.93088586        0.000002
       174         -0.93088586        0.000002
       175         -0.93088586        0.000002
       176         -0.93088586        0.000002
       177         -0.93088586        0.000002
       178         -0.93088586        0.000002
       179         -0.93088586        0.000002
       180         -0.93088586        0.000002
       181         -0.93088586        0.000002
       182         -0.93088586        0.000002
       183         -0.93088586        0.000001
       184         -0.93088586        0.000001
       185         -0.93088586        0.000001
       186         -0.93088586        0.000001
       187         -0.93088586        0.000001
       188         -0.93088586        0.000001
       189         -0.93088586        0.000001
       190         -0.93088586        0.000001
       191         -0.93088586        0.000001
       192         -0.93088586        0.000001
       193         -0.93088586        0.000001
       194         -0.93088586        0.000001
       195         -0.93088586        0.000001
       196         -0.93088586        0.000001

 Reached Convergence

 WFN1                     :
 --------------------------
 Total WFN1 energy  =          -0.9308858558
 1-Electron energy  =          -1.1208129923
 2-Electron energy  =           0.3433361113
 Correlation energy =          -0.2487497475
 DFT XC energy      =           0.0000000000
 Entropy energy     =           0.0000000000
 Nuclear energy     =           0.0953407727

 conventional Hartree-Fock:
 --------------------------
 Total SCF energy  =          -0.8691811190
 2-Electron energy =           0.4050408482

                WFN1 Final Natural orbital energies and occupations
                ---------------------------------------------------

              Alpha       Beta            Alpha       Beta  
            --------    --------        --------    --------
       1      0.0000      0.0000          0.4845      0.4845
       2      0.0000      0.0000          0.4836      0.4836
       3      0.0000      0.0000          0.0159      0.0159
       4      0.0000      0.0000          0.0159      0.0159

             WFN1 Final Correlation function energies and occupations
             --------------------------------------------------------

              Alpha       Beta            Alpha       Beta  
            --------    --------        --------    --------
       1      0.0000      0.0000          1.0000      1.0000
       2      0.0000      0.0000          0.0000      0.0000
       3      0.0000      0.0000          0.0000      0.0000
       4      0.0000      0.0000          0.0000      0.0000

                WFN1 Final alpha-alpha 2-matrix occupation numbers
                --------------------------------------------------


 global array: g_momo1[1:4,1:4],  handle: -990 

            1           2           3           4  
       ----------- ----------- ----------- -----------
   1       0.00000     0.00000    -0.00000     0.00000
   2      -0.00000     0.00000     0.00000     0.00000
   3      -0.00000     0.00000     0.00000     0.00000
   4       0.00000     0.00000     0.00000    -0.00000

                 WFN1 Final beta-beta 2-matrix occupation numbers
                 ------------------------------------------------


 global array: g_momo2[1:4,1:4],  handle: -989 

            1           2           3           4  
       ----------- ----------- ----------- -----------
   1       0.00000     0.00000    -0.00000     0.00000
   2      -0.00000     0.00000     0.00000     0.00000
   3      -0.00000     0.00000     0.00000     0.00000
   4       0.00000     0.00000     0.00000    -0.00000

                  WFN1 Final alpha Correlation Function Analysis
                  ----------------------------------------------


 global array: Ca[1:4,1:4],  handle: -981 

                     1                       2                       3                       4  
       ----------------------- ----------------------- ----------------------- -----------------------
   1      -0.38629,   -0.57906    -0.39497,   -0.59004    -0.03241,    0.02038     0.03944,    0.09109
   2      -0.69503,   -0.02368     0.70319,    0.02259    -0.01235,    0.06234     0.12966,    0.02292
   3       0.11834,   -0.04389    -0.01359,    0.00998     0.70469,    0.15882     0.66119,    0.15745
   4       0.10772,   -0.06562    -0.02287,    0.00694    -0.48573,    0.48656     0.49856,   -0.51213

                   WFN1 Final beta Correlation Function Analysis
                   ---------------------------------------------


 global array: Cb[1:4,1:4],  handle: -980 

                     1                       2                       3                       4  
       ----------------------- ----------------------- ----------------------- -----------------------
   1      -0.38629,   -0.57906    -0.39497,   -0.59004    -0.03241,    0.02038     0.03944,    0.09109
   2      -0.69503,   -0.02368     0.70319,    0.02259    -0.01235,    0.06234     0.12966,    0.02292
   3       0.11834,   -0.04389    -0.01359,    0.00998     0.70469,    0.15882     0.66119,    0.15745
   4       0.10772,   -0.06562    -0.02287,    0.00694    -0.48573,    0.48656     0.49856,   -0.51213

                     WFN1 Final Alpha Natural Orbital Analysis
                     -----------------------------------------

 Vector    1  Occ=4.845283D-01  E= 0.000000D+00
              MO Center=  0.0D+00,  0.0D+00,  1.5D-07, r^2= 8.6D+00
   Bfn.  Coefficient  Atom+Function         Bfn.  Coefficient  Atom+Function  
  ----- ------------  ---------------      ----- ------------  ---------------
     2     -0.513924  1 H  s                  4     -0.513924  2 H  s          
     1     -0.253549  1 H  s                  3     -0.253549  2 H  s          

 Vector    2  Occ=4.836305D-01  E= 0.000000D+00
              MO Center=  0.0D+00,  0.0D+00, -1.5D-07, r^2= 8.6D+00
   Bfn.  Coefficient  Atom+Function         Bfn.  Coefficient  Atom+Function  
  ----- ------------  ---------------      ----- ------------  ---------------
     2     -0.513714  1 H  s                  4      0.513715  2 H  s          
     1     -0.253853  1 H  s                  3      0.253853  2 H  s          

 Vector    3  Occ=1.593173D-02  E= 0.000000D+00
              MO Center=  0.0D+00,  0.0D+00, -7.9D-07, r^2= 8.8D+00
   Bfn.  Coefficient  Atom+Function         Bfn.  Coefficient  Atom+Function  
  ----- ------------  ---------------      ----- ------------  ---------------
     1      0.904431  1 H  s                  3      0.904431  2 H  s          
     2     -0.786156  1 H  s                  4     -0.786156  2 H  s          

 Vector    4  Occ=1.590944D-02  E= 0.000000D+00
              MO Center=  0.0D+00,  0.0D+00,  7.9D-07, r^2= 8.8D+00
   Bfn.  Coefficient  Atom+Function         Bfn.  Coefficient  Atom+Function  
  ----- ------------  ---------------      ----- ------------  ---------------
     1     -0.904449  1 H  s                  3      0.904450  2 H  s          
     2      0.786569  1 H  s                  4     -0.786570  2 H  s          


                     WFN1 Final Beta Natural Orbital Analysis
                     ----------------------------------------

 Vector    1  Occ=4.845283D-01  E= 0.000000D+00
              MO Center=  0.0D+00,  0.0D+00,  1.5D-07, r^2= 8.6D+00
   Bfn.  Coefficient  Atom+Function         Bfn.  Coefficient  Atom+Function  
  ----- ------------  ---------------      ----- ------------  ---------------
     2     -0.513924  1 H  s                  4     -0.513924  2 H  s          
     1     -0.253549  1 H  s                  3     -0.253549  2 H  s          

 Vector    2  Occ=4.836305D-01  E= 0.000000D+00
              MO Center=  0.0D+00,  0.0D+00, -1.5D-07, r^2= 8.6D+00
   Bfn.  Coefficient  Atom+Function         Bfn.  Coefficient  Atom+Function  
  ----- ------------  ---------------      ----- ------------  ---------------
     2     -0.513714  1 H  s                  4      0.513715  2 H  s          
     1     -0.253853  1 H  s                  3      0.253853  2 H  s          

 Vector    3  Occ=1.593173D-02  E= 0.000000D+00
              MO Center=  0.0D+00,  0.0D+00, -7.9D-07, r^2= 8.8D+00
   Bfn.  Coefficient  Atom+Function         Bfn.  Coefficient  Atom+Function  
  ----- ------------  ---------------      ----- ------------  ---------------
     1      0.904431  1 H  s                  3      0.904431  2 H  s          
     2     -0.786156  1 H  s                  4     -0.786156  2 H  s          

 Vector    4  Occ=1.590944D-02  E= 0.000000D+00
              MO Center=  0.0D+00,  0.0D+00,  7.9D-07, r^2= 8.8D+00
   Bfn.  Coefficient  Atom+Function         Bfn.  Coefficient  Atom+Function  
  ----- ------------  ---------------      ----- ------------  ---------------
     1     -0.904449  1 H  s                  3      0.904450  2 H  s          
     2      0.786569  1 H  s                  4     -0.786570  2 H  s          


 Task  times  cpu:        8.8s     wall:       12.0s
 Summary of allocated global arrays
-----------------------------------
  No active global arrays



                         GA Statistics for process    0
                         ------------------------------

       create   destroy   get      put      acc     scatter   gather  read&inc
calls:   44       44     6.79e+06 1.43e+04 1.86e+04    0        0       10     
number of processes/call 1.00e+00 1.00e+00 1.00e+00 0.00e+00 0.00e+00
bytes total:             8.72e+08 2.38e+06 2.97e+06 0.00e+00 0.00e+00 8.00e+01
bytes remote:            0.00e+00 0.00e+00 0.00e+00 0.00e+00 0.00e+00 0.00e+00
Max memory consumed for GA by this process: 10624 bytes
MA_summarize_allocated_blocks: starting scan ...
MA_summarize_allocated_blocks: scan completed: 0 heap blocks, 0 stack blocks
MA usage statistics:

	allocation statistics:
					      heap	     stack
					      ----	     -----
	current number of blocks	         0	         0
	maximum number of blocks	        19	        17
	current total bytes		         0	         0
	maximum total bytes		   3204328	  22508616
	maximum total K-bytes		      3205	     22509
	maximum total M-bytes		         4	        23


                                NWChem Input Module
                                -------------------





                                     CITATION
                                     --------
                Please cite the following reference when publishing
                           results obtained with NWChem:

                 M. Valiev, E.J. Bylaska, N. Govind, K. Kowalski,
              T.P. Straatsma, H.J.J. van Dam, D. Wang, J. Nieplocha,
                        E. Apra, T.L. Windus, W.A. de Jong
                 "NWChem: a comprehensive and scalable open-source
                  solution for large scale molecular simulations"
                      Comput. Phys. Commun. 181, 1477 (2010)
                           doi:10.1016/j.cpc.2010.04.018

                                      AUTHORS
                                      -------
          E. Apra, E. J. Bylaska, W. A. de Jong, N. Govind, K. Kowalski,
       T. P. Straatsma, M. Valiev, H. J. J. van Dam, D. Wang, T. L. Windus,
        J. Hammond, J. Autschbach, K. Bhaskaran-Nair, J. Brabec, K. Lopata,
    S. A. Fischer, S. Krishnamoorthy, M. Jacquelin, W. Ma, M. Klemm, O. Villa,
      Y. Chen, V. Anisimov, F. Aquino, S. Hirata, M. T. Hackler, V. Konjkov,
      T. Risthaus, M. Malagoli, A. Marenich, A. Otero-de-la-Roza, J. Mullin,
        P. Nichols, R. Peverati, J. Pittner, Y. Zhao, P.-D. Fan, A. Fonari,
       M. Williamson, R. J. Harrison, J. R. Rehr, M. Dupuis, D. Silverstein,
    D. M. A. Smith, J. Nieplocha, V. Tipparaju, M. Krishnan, B. E. Van Kuiken,
        A. Vazquez-Mayagoitia, L. Jensen, M. Swart, Q. Wu, T. Van Voorhis,
     A. A. Auer, M. Nooijen, L. D. Crosby, E. Brown, G. Cisneros, G. I. Fann,
   H. Fruchtl, J. Garza, K. Hirao, R. A. Kendall, J. A. Nichols, K. Tsemekhman,
    K. Wolinski, J. Anchell, D. E. Bernholdt, P. Borowski, T. Clark, D. Clerc,
   H. Dachsel, M. J. O. Deegan, K. Dyall, D. Elwood, E. Glendening, M. Gutowski,
   A. C. Hess, J. Jaffe, B. G. Johnson, J. Ju, R. Kobayashi, R. Kutteh, Z. Lin,
   R. Littlefield, X. Long, B. Meng, T. Nakajima, S. Niu, L. Pollack, M. Rosing,
   K. Glaesemann, G. Sandrone, M. Stave, H. Taylor, G. Thomas, J. H. van Lenthe,
                               A. T. Wong, Z. Zhang.

 Total times  cpu:        8.8s     wall:       12.0s
