 argument  1 = input-wf.nw



============================== echo of input deck ==============================
echo
start wfn1_dat
geometry units au noautoz
  H 0 0 -2.24434600000000000000
  H 0 0  2.24434600000000000000
  symmetry cs
end
basis
  H library 6-31g
end
set wfn1:input_vectors "atomic"
set wfn1:solver "monte-carlo"
set wfn1:print_error F
set wfn1:t_initial 0.1
#set wfn1:corr_expr "wfn1_mx"
set wfn1:corr_expr "wfn1c"
set wfn1:t_bath 0.0
set wfn1:maxit  20000
task wfn1 energy
================================================================================


                                         
                                         


              Northwest Computational Chemistry Package (NWChem) 6.8
              ------------------------------------------------------


                    Environmental Molecular Sciences Laboratory
                       Pacific Northwest National Laboratory
                                Richland, WA 99352

                              Copyright (c) 1994-2015
                       Pacific Northwest National Laboratory
                            Battelle Memorial Institute

             NWChem is an open-source computational chemistry package
                        distributed under the terms of the
                      Educational Community License (ECL) 2.0
             A copy of the license is included with this distribution
                              in the LICENSE.TXT file

                                  ACKNOWLEDGMENT
                                  --------------

            This software and its documentation were developed at the
            EMSL at Pacific Northwest National Laboratory, a multiprogram
            national laboratory, operated for the U.S. Department of Energy
            by Battelle under Contract Number DE-AC05-76RL01830. Support
            for this work was provided by the Department of Energy Office
            of Biological and Environmental Research, Office of Basic
            Energy Sciences, and the Office of Advanced Scientific Computing.


           Job information
           ---------------

    hostname        = erato
    program         = ../../../bin/LINUX64/nwchem
    date            = Mon Mar  1 01:40:06 2021

    compiled        = Sun_Feb_28_18:02:42_2021
    source          = /home/hvandam/nwchem-1-wfn1
    nwchem branch   = Development
    nwchem revision = nwchem_on_git-124-gad72d19fff205e319ffbbf2bca37a04ded6ad57b
    ga revision     = nwchem_on_git-124-gad72d19
    use scalapack   = F
    input           = input-wf.nw
    prefix          = wfn1_dat.
    data base       = ./wfn1_dat.db
    status          = startup
    nproc           =        1
    time left       =     -1s



           Memory information
           ------------------

    heap     =   13107200 doubles =    100.0 Mbytes
    stack    =   13107197 doubles =    100.0 Mbytes
    global   =   26214400 doubles =    200.0 Mbytes (distinct from heap & stack)
    total    =   52428797 doubles =    400.0 Mbytes
    verify   = yes
    hardfail = no 


           Directory information
           ---------------------

  0 permanent = .
  0 scratch   = .




                                NWChem Input Module
                                -------------------


 Turning off AUTOSYM since
 SYMMETRY directive was detected!



                             Geometry "geometry" -> ""
                             -------------------------

 Output coordinates in a.u. (scale by  1.000000000 to convert to a.u.)

  No.       Tag          Charge          X              Y              Z
 ---- ---------------- ---------- -------------- -------------- --------------
    1 H                    1.0000     0.00000000     0.00000000    -2.24434600
    2 H                    1.0000     0.00000000     0.00000000     2.24434600

      Atomic Mass 
      ----------- 

      H                  1.007825


 Effective nuclear repulsion energy (a.u.)       0.2227820488

            Nuclear Dipole moment (a.u.) 
            ----------------------------
        X                 Y               Z
 ---------------- ---------------- ----------------
     0.0000000000     0.0000000000     0.0000000000

      Symmetry information
      --------------------

 Group name             Cs        
 Group number              2
 Group order               2
 No. of unique centers     1

      Symmetry unique atoms

     1


            XYZ format geometry
            -------------------
     2
 geometry
 H                     0.00000000     0.00000000    -1.18765684
 H                     0.00000000     0.00000000     1.18765684

                      Basis "ao basis" -> "" (cartesian)
                      -----
  H (Hydrogen)
  ------------
            Exponent  Coefficients 
       -------------- ---------------------------------------------------------
  1 S  1.87311370E+01  0.033495
  1 S  2.82539370E+00  0.234727
  1 S  6.40121700E-01  0.813757

  2 S  1.61277800E-01  1.000000



 Summary of "ao basis" -> "" (cartesian)
 ------------------------------------------------------------------------------
       Tag                 Description            Shells   Functions and Types
 ---------------- ------------------------------  ------  ---------------------
 H                           6-31g                   2        2   2s



                                NWChem WFN1 Module
                                ------------------



          No. of electrons :     2
           Alpha electrons :     1
            Beta electrons :     1
          Charge           :     0
          Spin multiplicity:     1

 HvD: wfn1_inpdft
 HvD: nquad_task =                     1
 HvD: iangquad   =                     0
 HvD: gridtype   = user      
 HvD: leb        =  T
 HvD: radgrid    = murakn    
 HvD: trunc_neigh=  T
 HvD: lssw       =  T
 HvD: whichssw   = erf1    
 HvD: mxnrad     =                     0
 HvD: mxnang     =                     0
 HVD: wfn1: movecs_in  = atomic                                                                                                                                                                                                                                                          
 HVD: wfn1: movecs_out = ./wfn1_dat.movecs                                                                                                                                                                                                                                               

      Superposition of Atomic Density Guess
      -------------------------------------

 Sum of atomic energies:          -0.99646508

      Non-variational initial energy
      ------------------------------

 Total energy =      -0.685748
 1-e energy   =      -1.441968
 2-e energy   =       0.533438
 HOMO         =      -0.236870
 LUMO         =      -0.141349

 iteration              energy           error
 ---------              ------           -----
         0         -0.91286376        0.080000
         1         -0.91856878        0.080000
         2         -0.92356681        0.080000
         3         -0.92723904        0.080000
         4         -0.92922876        0.080000
         5         -0.92941814        0.080000
         6         -0.93014014        0.080000
         7         -0.93093890        0.080000
         8         -0.93120812        0.080000
         9         -0.93162653        0.080000
        10         -0.93374584        0.080000
        11         -0.94136230        0.080000
        12         -0.94282908        0.080000
        13         -0.94453420        0.080000
        14         -0.94978603        0.080000
        15         -0.95343617        0.080000
        16         -0.95355840        0.080000
        17         -0.95508400        0.080000
        18         -0.95690413        0.080000
        19         -0.95876293        0.080000
        20         -0.96138289        0.080000
        21         -0.96198726        0.080000
        22         -0.96254730        0.080000
        23         -0.96346598        0.080000
        24         -0.96348388        0.080000
        25         -0.96384602        0.080000
        26         -0.96479318        0.080000
        27         -0.96658344        0.080000
        28         -0.96674469        0.080000
        29         -0.96839654        0.080000
        30         -0.97024002        0.080000
        31         -0.97039402        0.080000
        32         -0.97053494        0.080000
        33         -0.97096191        0.080000
        34         -0.97141396        0.080000
        35         -0.97184925        0.080000
        36         -0.97224938        0.080000
        37         -0.97234950        0.080000
        38         -0.97259539        0.080000
        39         -0.97333661        0.080000
        40         -0.97357037        0.080000
        41         -0.97369926        0.080000
        42         -0.97386805        0.080000
        43         -0.97387232        0.080000
        44         -0.97392389        0.080000
        45         -0.97395446        0.080000
        46         -0.97400946        0.080000
        47         -0.97417247        0.080000
        48         -0.97418492        0.080000
        49         -0.97434326        0.080000
        50         -0.97438027        0.080000
        51         -0.97446466        0.080000
        52         -0.97453450        0.080000
        53         -0.97457982        0.080000
        54         -0.97467031        0.080000
        55         -0.97476903        0.080000
        56         -0.97481147        0.080000
        57         -0.97482072        0.080000
        58         -0.97482988        0.063496
        59         -0.97483237        0.063496
        60         -0.97485424        0.063496
        61         -0.97488422        0.050397
        62         -0.97490539        0.050397
        63         -0.97492254        0.050397
        64         -0.97492637        0.040000
        65         -0.97493094        0.031748
        66         -0.97494775        0.031748
        67         -0.97494778        0.025198
        68         -0.97495068        0.025198
        69         -0.97495241        0.025198
        70         -0.97495676        0.025198
        71         -0.97495732        0.025198
        72         -0.97496136        0.025198
        73         -0.97496285        0.025198
        74         -0.97496625        0.025198
        75         -0.97496947        0.025198
        76         -0.97497217        0.025198
        77         -0.97497601        0.025198
        78         -0.97497638        0.015874
        79         -0.97497664        0.012599
        80         -0.97497953        0.012599
        81         -0.97497976        0.012599
        82         -0.97498003        0.010000
        83         -0.97498093        0.010000
        84         -0.97498162        0.005000
        85         -0.97498163        0.005000
        86         -0.97498175        0.005000
        87         -0.97498181        0.005000
        88         -0.97498209        0.005000
        89         -0.97498214        0.005000
        90         -0.97498219        0.005000
        91         -0.97498235        0.005000
        92         -0.97498236        0.005000
        93         -0.97498243        0.005000
        94         -0.97498247        0.005000
        95         -0.97498258        0.005000
        96         -0.97498271        0.005000
        97         -0.97498280        0.005000
        98         -0.97498294        0.002500
        99         -0.97498296        0.002500
       100         -0.97498297        0.002500
       101         -0.97498309        0.002500
       102         -0.97498310        0.002500
       103         -0.97498319        0.002500
       104         -0.97498327        0.001984
       105         -0.97498328        0.001575
       106         -0.97498328        0.001575
       107         -0.97498331        0.001575
       108         -0.97498333        0.001575
       109         -0.97498333        0.001575
       110         -0.97498333        0.001575
       111         -0.97498333        0.001575
       112         -0.97498334        0.001575
       113         -0.97498336        0.001575
       114         -0.97498336        0.001250
       115         -0.97498338        0.000787
       116         -0.97498338        0.000787
       117         -0.97498338        0.000787
       118         -0.97498338        0.000787
       119         -0.97498339        0.000787
       120         -0.97498339        0.000496
       121         -0.97498339        0.000394
       122         -0.97498339        0.000394
       123         -0.97498339        0.000394
       124         -0.97498339        0.000394
       125         -0.97498339        0.000394
       126         -0.97498339        0.000394
       127         -0.97498339        0.000394
       128         -0.97498339        0.000394
       129         -0.97498340        0.000394
       130         -0.97498340        0.000394
       131         -0.97498340        0.000394
       132         -0.97498340        0.000394
       133         -0.97498340        0.000248
       134         -0.97498340        0.000248
       135         -0.97498340        0.000197
       136         -0.97498340        0.000197
       137         -0.97498340        0.000197
       138         -0.97498340        0.000197
       139         -0.97498340        0.000197
       140         -0.97498341        0.000156
       141         -0.97498341        0.000156
       142         -0.97498341        0.000156
       143         -0.97498341        0.000156
       144         -0.97498341        0.000156
       145         -0.97498341        0.000124
       146         -0.97498341        0.000124
       147         -0.97498341        0.000124
       148         -0.97498341        0.000124
       149         -0.97498341        0.000124
       150         -0.97498341        0.000124
       151         -0.97498341        0.000124
       152         -0.97498341        0.000124
       153         -0.97498341        0.000124
       154         -0.97498341        0.000124
       155         -0.97498341        0.000124
       156         -0.97498341        0.000098
       157         -0.97498341        0.000098
       158         -0.97498341        0.000098
       159         -0.97498341        0.000098
       160         -0.97498341        0.000078
       161         -0.97498341        0.000078
       162         -0.97498341        0.000078
       163         -0.97498341        0.000078
       164         -0.97498341        0.000078
       165         -0.97498341        0.000078
       166         -0.97498341        0.000078
       167         -0.97498341        0.000078
       168         -0.97498341        0.000078
       169         -0.97498341        0.000078
       170         -0.97498341        0.000078
       171         -0.97498341        0.000078
       172         -0.97498341        0.000062
       173         -0.97498341        0.000062
       174         -0.97498341        0.000049
       175         -0.97498341        0.000049
       176         -0.97498341        0.000049
       177         -0.97498341        0.000039
       178         -0.97498341        0.000039
       179         -0.97498341        0.000039
       180         -0.97498341        0.000039
       181         -0.97498341        0.000039
       182         -0.97498341        0.000039
       183         -0.97498341        0.000039
       184         -0.97498341        0.000039
       185         -0.97498341        0.000039
       186         -0.97498341        0.000039
       187         -0.97498341        0.000039
       188         -0.97498341        0.000039
       189         -0.97498341        0.000039
       190         -0.97498341        0.000039
       191         -0.97498341        0.000039
       192         -0.97498341        0.000031
       193         -0.97498341        0.000031
       194         -0.97498341        0.000025
       195         -0.97498341        0.000025
       196         -0.97498341        0.000025
       197         -0.97498341        0.000025
       198         -0.97498341        0.000025
       199         -0.97498341        0.000020
       200         -0.97498341        0.000020
       201         -0.97498341        0.000020
       202         -0.97498341        0.000020
       203         -0.97498341        0.000016
       204         -0.97498341        0.000016
       205         -0.97498341        0.000016
       206         -0.97498341        0.000016
       207         -0.97498341        0.000016
       208         -0.97498341        0.000016
       209         -0.97498341        0.000012
       210         -0.97498341        0.000012
       211         -0.97498341        0.000012
       212         -0.97498341        0.000012
       213         -0.97498341        0.000010
       214         -0.97498341        0.000010
       215         -0.97498341        0.000010
       216         -0.97498341        0.000010
       217         -0.97498341        0.000010
       218         -0.97498341        0.000010
       219         -0.97498341        0.000010
       220         -0.97498341        0.000008
       221         -0.97498341        0.000005
       222         -0.97498341        0.000004
       223         -0.97498341        0.000004
       224         -0.97498341        0.000004
       225         -0.97498341        0.000004
       226         -0.97498341        0.000004
       227         -0.97498341        0.000004
       228         -0.97498341        0.000004
       229         -0.97498341        0.000004
       230         -0.97498341        0.000004
       231         -0.97498341        0.000004
       232         -0.97498341        0.000004
       233         -0.97498341        0.000004
       234         -0.97498341        0.000003
       235         -0.97498341        0.000002
       236         -0.97498341        0.000002
       237         -0.97498341        0.000002
       238         -0.97498341        0.000002
       239         -0.97498341        0.000002
       240         -0.97498341        0.000002
       241         -0.97498341        0.000002
       242         -0.97498341        0.000002
       243         -0.97498341        0.000002
       244         -0.97498341        0.000002
       245         -0.97498341        0.000002
       246         -0.97498341        0.000002
       247         -0.97498341        0.000002
       248         -0.97498341        0.000002
       249         -0.97498341        0.000002
       250         -0.97498341        0.000002
       251         -0.97498341        0.000002
       252         -0.97498341        0.000002
       253         -0.97498341        0.000002
       254         -0.97498341        0.000002
       255         -0.97498341        0.000002
       256         -0.97498341        0.000002
       257         -0.97498341        0.000002
       258         -0.97498341        0.000002
       259         -0.97498341        0.000002
       260         -0.97498341        0.000002
       261         -0.97498341        0.000002
       262         -0.97498341        0.000002
       263         -0.97498341        0.000002
       264         -0.97498341        0.000002
       265         -0.97498341        0.000002
       266         -0.97498341        0.000002
       267         -0.97498341        0.000001
       268         -0.97498341        0.000001
       269         -0.97498341        0.000001
       270         -0.97498341        0.000001
       271         -0.97498341        0.000001
       272         -0.97498341        0.000001
       273         -0.97498341        0.000001
       274         -0.97498341        0.000001

 Reached Convergence

 WFN1                     :
 --------------------------
 Total WFN1 energy  =          -0.9749834112
 1-Electron energy  =          -1.3903096430
 2-Electron energy  =           0.4061727345
 Correlation energy =          -0.2136285514
 DFT XC energy      =           0.0000000000
 Entropy energy     =           0.0000000000
 Nuclear energy     =           0.2227820488

 conventional Hartree-Fock:
 --------------------------
 Total SCF energy  =          -0.8648788912
 2-Electron energy =           0.5162772545

                WFN1 Final Natural orbital energies and occupations
                ---------------------------------------------------

              Alpha       Beta            Alpha       Beta  
            --------    --------        --------    --------
       1      0.0000      0.0000          0.6583      0.6583
       2      0.0000      0.0000          0.3102      0.3102
       3      0.0000      0.0000          0.0181      0.0181
       4      0.0000      0.0000          0.0134      0.0134

             WFN1 Final Correlation function energies and occupations
             --------------------------------------------------------

              Alpha       Beta            Alpha       Beta  
            --------    --------        --------    --------
       1      0.0000      0.0000          1.0000      1.0000
       2      0.0000      0.0000          0.0000      0.0000
       3      0.0000      0.0000          0.0000      0.0000
       4      0.0000      0.0000          0.0000      0.0000

                WFN1 Final alpha-alpha 2-matrix occupation numbers
                --------------------------------------------------


 global array: g_momo1[1:4,1:4],  handle: -990 

            1           2           3           4  
       ----------- ----------- ----------- -----------
   1       0.00000     0.00000     0.00000    -0.00000
   2       0.00000     0.00000    -0.00000    -0.00000
   3       0.00000     0.00000     0.00000    -0.00000
   4       0.00000     0.00000     0.00000     0.00000

                 WFN1 Final beta-beta 2-matrix occupation numbers
                 ------------------------------------------------


 global array: g_momo2[1:4,1:4],  handle: -989 

            1           2           3           4  
       ----------- ----------- ----------- -----------
   1       0.00000     0.00000     0.00000    -0.00000
   2       0.00000     0.00000    -0.00000    -0.00000
   3       0.00000     0.00000     0.00000    -0.00000
   4       0.00000     0.00000     0.00000     0.00000

                  WFN1 Final alpha Correlation Function Analysis
                  ----------------------------------------------


 global array: Ca[1:4,1:4],  handle: -981 

                     1                       2                       3                       4  
       ----------------------- ----------------------- ----------------------- -----------------------
   1      -0.32176,    0.74483     0.21357,   -0.52893    -0.05810,    0.11058    -0.02223,    0.01480
   2      -0.44131,   -0.33980    -0.66191,   -0.48509    -0.09460,   -0.08248     0.00651,   -0.02337
   3       0.12948,    0.03641     0.02822,    0.01145    -0.80847,   -0.20837     0.51417,    0.13992
   4      -0.08677,    0.07657    -0.00669,    0.01424     0.46181,   -0.24153     0.75061,   -0.38903

                   WFN1 Final beta Correlation Function Analysis
                   ---------------------------------------------


 global array: Cb[1:4,1:4],  handle: -980 

                     1                       2                       3                       4  
       ----------------------- ----------------------- ----------------------- -----------------------
   1      -0.32176,    0.74483     0.21357,   -0.52893    -0.05810,    0.11058    -0.02223,    0.01480
   2      -0.44131,   -0.33980    -0.66191,   -0.48509    -0.09460,   -0.08248     0.00651,   -0.02337
   3       0.12948,    0.03641     0.02822,    0.01145    -0.80847,   -0.20837     0.51417,    0.13992
   4      -0.08677,    0.07657    -0.00669,    0.01424     0.46181,   -0.24153     0.75061,   -0.38903

                     WFN1 Final Alpha Natural Orbital Analysis
                     -----------------------------------------

 Vector    1  Occ=6.583014D-01  E= 0.000000D+00
              MO Center=  0.0D+00,  0.0D+00, -3.0D-07, r^2= 2.2D+00
   Bfn.  Coefficient  Atom+Function         Bfn.  Coefficient  Atom+Function  
  ----- ------------  ---------------      ----- ------------  ---------------
     2      0.489694  1 H  s                  4      0.489694  2 H  s          
     1      0.230989  1 H  s                  3      0.230989  2 H  s          

 Vector    2  Occ=3.102162D-01  E= 0.000000D+00
              MO Center=  0.0D+00,  0.0D+00,  3.4D-07, r^2= 2.4D+00
   Bfn.  Coefficient  Atom+Function         Bfn.  Coefficient  Atom+Function  
  ----- ------------  ---------------      ----- ------------  ---------------
     2     -0.527987  1 H  s                  4      0.527987  2 H  s          
     1     -0.294009  1 H  s                  3      0.294010  2 H  s          

 Vector    3  Occ=1.809095D-02  E= 0.000000D+00
              MO Center=  0.0D+00,  0.0D+00,  1.9D-06, r^2= 2.3D+00
   Bfn.  Coefficient  Atom+Function         Bfn.  Coefficient  Atom+Function  
  ----- ------------  ---------------      ----- ------------  ---------------
     1     -0.894789  1 H  s                  3     -0.894791  2 H  s          
     2      0.688788  1 H  s                  4      0.688789  2 H  s          

 Vector    4  Occ=1.339141D-02  E= 0.000000D+00
              MO Center=  0.0D+00,  0.0D+00, -1.9D-06, r^2= 3.0D+00
   Bfn.  Coefficient  Atom+Function         Bfn.  Coefficient  Atom+Function  
  ----- ------------  ---------------      ----- ------------  ---------------
     2      0.941721  1 H  s                  4     -0.941720  2 H  s          
     1     -0.922266  1 H  s                  3      0.922265  2 H  s          


                     WFN1 Final Beta Natural Orbital Analysis
                     ----------------------------------------

 Vector    1  Occ=6.583014D-01  E= 0.000000D+00
              MO Center=  0.0D+00,  0.0D+00, -3.0D-07, r^2= 2.2D+00
   Bfn.  Coefficient  Atom+Function         Bfn.  Coefficient  Atom+Function  
  ----- ------------  ---------------      ----- ------------  ---------------
     2      0.489694  1 H  s                  4      0.489694  2 H  s          
     1      0.230989  1 H  s                  3      0.230989  2 H  s          

 Vector    2  Occ=3.102162D-01  E= 0.000000D+00
              MO Center=  0.0D+00,  0.0D+00,  3.4D-07, r^2= 2.4D+00
   Bfn.  Coefficient  Atom+Function         Bfn.  Coefficient  Atom+Function  
  ----- ------------  ---------------      ----- ------------  ---------------
     2     -0.527987  1 H  s                  4      0.527987  2 H  s          
     1     -0.294009  1 H  s                  3      0.294010  2 H  s          

 Vector    3  Occ=1.809095D-02  E= 0.000000D+00
              MO Center=  0.0D+00,  0.0D+00,  1.9D-06, r^2= 2.3D+00
   Bfn.  Coefficient  Atom+Function         Bfn.  Coefficient  Atom+Function  
  ----- ------------  ---------------      ----- ------------  ---------------
     1     -0.894789  1 H  s                  3     -0.894791  2 H  s          
     2      0.688788  1 H  s                  4      0.688789  2 H  s          

 Vector    4  Occ=1.339141D-02  E= 0.000000D+00
              MO Center=  0.0D+00,  0.0D+00, -1.9D-06, r^2= 3.0D+00
   Bfn.  Coefficient  Atom+Function         Bfn.  Coefficient  Atom+Function  
  ----- ------------  ---------------      ----- ------------  ---------------
     2      0.941721  1 H  s                  4     -0.941720  2 H  s          
     1     -0.922266  1 H  s                  3      0.922265  2 H  s          


 Task  times  cpu:       10.3s     wall:       13.8s
 Summary of allocated global arrays
-----------------------------------
  No active global arrays



                         GA Statistics for process    0
                         ------------------------------

       create   destroy   get      put      acc     scatter   gather  read&inc
calls:   44       44     7.69e+06 1.61e+04 2.11e+04    0        0       11     
number of processes/call 1.00e+00 1.00e+00 1.00e+00 0.00e+00 0.00e+00
bytes total:             9.88e+08 2.69e+06 3.36e+06 0.00e+00 0.00e+00 8.80e+01
bytes remote:            0.00e+00 0.00e+00 0.00e+00 0.00e+00 0.00e+00 0.00e+00
Max memory consumed for GA by this process: 10624 bytes
MA_summarize_allocated_blocks: starting scan ...
MA_summarize_allocated_blocks: scan completed: 0 heap blocks, 0 stack blocks
MA usage statistics:

	allocation statistics:
					      heap	     stack
					      ----	     -----
	current number of blocks	         0	         0
	maximum number of blocks	        19	        17
	current total bytes		         0	         0
	maximum total bytes		   3204328	  22508616
	maximum total K-bytes		      3205	     22509
	maximum total M-bytes		         4	        23


                                NWChem Input Module
                                -------------------





                                     CITATION
                                     --------
                Please cite the following reference when publishing
                           results obtained with NWChem:

                 M. Valiev, E.J. Bylaska, N. Govind, K. Kowalski,
              T.P. Straatsma, H.J.J. van Dam, D. Wang, J. Nieplocha,
                        E. Apra, T.L. Windus, W.A. de Jong
                 "NWChem: a comprehensive and scalable open-source
                  solution for large scale molecular simulations"
                      Comput. Phys. Commun. 181, 1477 (2010)
                           doi:10.1016/j.cpc.2010.04.018

                                      AUTHORS
                                      -------
          E. Apra, E. J. Bylaska, W. A. de Jong, N. Govind, K. Kowalski,
       T. P. Straatsma, M. Valiev, H. J. J. van Dam, D. Wang, T. L. Windus,
        J. Hammond, J. Autschbach, K. Bhaskaran-Nair, J. Brabec, K. Lopata,
    S. A. Fischer, S. Krishnamoorthy, M. Jacquelin, W. Ma, M. Klemm, O. Villa,
      Y. Chen, V. Anisimov, F. Aquino, S. Hirata, M. T. Hackler, V. Konjkov,
      T. Risthaus, M. Malagoli, A. Marenich, A. Otero-de-la-Roza, J. Mullin,
        P. Nichols, R. Peverati, J. Pittner, Y. Zhao, P.-D. Fan, A. Fonari,
       M. Williamson, R. J. Harrison, J. R. Rehr, M. Dupuis, D. Silverstein,
    D. M. A. Smith, J. Nieplocha, V. Tipparaju, M. Krishnan, B. E. Van Kuiken,
        A. Vazquez-Mayagoitia, L. Jensen, M. Swart, Q. Wu, T. Van Voorhis,
     A. A. Auer, M. Nooijen, L. D. Crosby, E. Brown, G. Cisneros, G. I. Fann,
   H. Fruchtl, J. Garza, K. Hirao, R. A. Kendall, J. A. Nichols, K. Tsemekhman,
    K. Wolinski, J. Anchell, D. E. Bernholdt, P. Borowski, T. Clark, D. Clerc,
   H. Dachsel, M. J. O. Deegan, K. Dyall, D. Elwood, E. Glendening, M. Gutowski,
   A. C. Hess, J. Jaffe, B. G. Johnson, J. Ju, R. Kobayashi, R. Kutteh, Z. Lin,
   R. Littlefield, X. Long, B. Meng, T. Nakajima, S. Niu, L. Pollack, M. Rosing,
   K. Glaesemann, G. Sandrone, M. Stave, H. Taylor, G. Thomas, J. H. van Lenthe,
                               A. T. Wong, Z. Zhang.

 Total times  cpu:       10.3s     wall:       13.8s
