 argument  1 = input-wf.nw



============================== echo of input deck ==============================
echo
start wfn1_dat
geometry units au noautoz
  H 0 0 -.84434600000000000000
  H 0 0  .84434600000000000000
  symmetry cs
end
basis
  H library 6-31g
end
set wfn1:input_vectors "atomic"
set wfn1:solver "monte-carlo"
set wfn1:print_error F
set wfn1:t_initial 0.1
#set wfn1:corr_expr "wfn1_mx"
set wfn1:corr_expr "wfn1c"
set wfn1:t_bath 0.0
set wfn1:maxit  20000
task wfn1 energy
================================================================================


                                         
                                         


              Northwest Computational Chemistry Package (NWChem) 6.8
              ------------------------------------------------------


                    Environmental Molecular Sciences Laboratory
                       Pacific Northwest National Laboratory
                                Richland, WA 99352

                              Copyright (c) 1994-2015
                       Pacific Northwest National Laboratory
                            Battelle Memorial Institute

             NWChem is an open-source computational chemistry package
                        distributed under the terms of the
                      Educational Community License (ECL) 2.0
             A copy of the license is included with this distribution
                              in the LICENSE.TXT file

                                  ACKNOWLEDGMENT
                                  --------------

            This software and its documentation were developed at the
            EMSL at Pacific Northwest National Laboratory, a multiprogram
            national laboratory, operated for the U.S. Department of Energy
            by Battelle under Contract Number DE-AC05-76RL01830. Support
            for this work was provided by the Department of Energy Office
            of Biological and Environmental Research, Office of Basic
            Energy Sciences, and the Office of Advanced Scientific Computing.


           Job information
           ---------------

    hostname        = erato
    program         = ../../../bin/LINUX64/nwchem
    date            = Mon Mar  1 01:06:55 2021

    compiled        = Sun_Feb_28_18:02:42_2021
    source          = /home/hvandam/nwchem-1-wfn1
    nwchem branch   = Development
    nwchem revision = nwchem_on_git-124-gad72d19fff205e319ffbbf2bca37a04ded6ad57b
    ga revision     = nwchem_on_git-124-gad72d19
    use scalapack   = F
    input           = input-wf.nw
    prefix          = wfn1_dat.
    data base       = ./wfn1_dat.db
    status          = startup
    nproc           =        1
    time left       =     -1s



           Memory information
           ------------------

    heap     =   13107198 doubles =    100.0 Mbytes
    stack    =   13107195 doubles =    100.0 Mbytes
    global   =   26214400 doubles =    200.0 Mbytes (distinct from heap & stack)
    total    =   52428793 doubles =    400.0 Mbytes
    verify   = yes
    hardfail = no 


           Directory information
           ---------------------

  0 permanent = .
  0 scratch   = .




                                NWChem Input Module
                                -------------------


 Turning off AUTOSYM since
 SYMMETRY directive was detected!



                             Geometry "geometry" -> ""
                             -------------------------

 Output coordinates in a.u. (scale by  1.000000000 to convert to a.u.)

  No.       Tag          Charge          X              Y              Z
 ---- ---------------- ---------- -------------- -------------- --------------
    1 H                    1.0000     0.00000000     0.00000000    -0.84434600
    2 H                    1.0000     0.00000000     0.00000000     0.84434600

      Atomic Mass 
      ----------- 

      H                  1.007825


 Effective nuclear repulsion energy (a.u.)       0.5921742982

            Nuclear Dipole moment (a.u.) 
            ----------------------------
        X                 Y               Z
 ---------------- ---------------- ----------------
     0.0000000000     0.0000000000     0.0000000000

      Symmetry information
      --------------------

 Group name             Cs        
 Group number              2
 Group order               2
 No. of unique centers     1

      Symmetry unique atoms

     1


            XYZ format geometry
            -------------------
     2
 geometry
 H                     0.00000000     0.00000000    -0.44680869
 H                     0.00000000     0.00000000     0.44680869

                      Basis "ao basis" -> "" (cartesian)
                      -----
  H (Hydrogen)
  ------------
            Exponent  Coefficients 
       -------------- ---------------------------------------------------------
  1 S  1.87311370E+01  0.033495
  1 S  2.82539370E+00  0.234727
  1 S  6.40121700E-01  0.813757

  2 S  1.61277800E-01  1.000000



 Summary of "ao basis" -> "" (cartesian)
 ------------------------------------------------------------------------------
       Tag                 Description            Shells   Functions and Types
 ---------------- ------------------------------  ------  ---------------------
 H                           6-31g                   2        2   2s



                                NWChem WFN1 Module
                                ------------------



          No. of electrons :     2
           Alpha electrons :     1
            Beta electrons :     1
          Charge           :     0
          Spin multiplicity:     1

 HvD: wfn1_inpdft
 HvD: nquad_task =                     1
 HvD: iangquad   =                     0
 HvD: gridtype   = user      
 HvD: leb        =  T
 HvD: radgrid    = murakn    
 HvD: trunc_neigh=  T
 HvD: lssw       =  T
 HvD: whichssw   = erf1    
 HvD: mxnrad     =                     0
 HvD: mxnang     =                     0
 HVD: wfn1: movecs_in  = atomic                                                                                                                                                                                                                                                          
 HVD: wfn1: movecs_out = ./wfn1_dat.movecs                                                                                                                                                                                                                                               

      Superposition of Atomic Density Guess
      -------------------------------------

 Sum of atomic energies:          -0.99646508

      Non-variational initial energy
      ------------------------------

 Total energy =      -0.826223
 1-e energy   =      -2.075246
 2-e energy   =       0.656848
 HOMO         =      -0.511319
 LUMO         =       0.131033

 iteration              energy           error
 ---------              ------           -----
         0         -1.11441408        0.080000
         1         -1.11552633        0.080000
         2         -1.11708790        0.080000
         3         -1.11749245        0.080000
         4         -1.11803821        0.080000
         5         -1.11809891        0.080000
         6         -1.11835907        0.080000
         7         -1.11880955        0.080000
         8         -1.11881674        0.080000
         9         -1.11901287        0.080000
        10         -1.11945754        0.080000
        11         -1.11947963        0.080000
        12         -1.11965324        0.080000
        13         -1.11970392        0.080000
        14         -1.11972540        0.080000
        15         -1.11978282        0.080000
        16         -1.11987453        0.080000
        17         -1.11988163        0.063496
        18         -1.11988903        0.050397
        19         -1.11989138        0.050397
        20         -1.11989993        0.050397
        21         -1.11993677        0.050397
        22         -1.11996389        0.050397
        23         -1.11997091        0.040000
        24         -1.11997651        0.040000
        25         -1.11998119        0.040000
        26         -1.11998693        0.040000
        27         -1.11999045        0.015874
        28         -1.11999469        0.015874
        29         -1.11999865        0.015874
        30         -1.12000148        0.012599
        31         -1.12000171        0.012599
        32         -1.12000438        0.012599
        33         -1.12000864        0.012599
        34         -1.12001237        0.012599
        35         -1.12001561        0.012599
        36         -1.12002105        0.012599
        37         -1.12002490        0.012599
        38         -1.12002561        0.012599
        39         -1.12002687        0.012599
        40         -1.12002732        0.012599
        41         -1.12002868        0.010000
        42         -1.12003051        0.010000
        43         -1.12003250        0.010000
        44         -1.12003354        0.010000
        45         -1.12003467        0.010000
        46         -1.12003469        0.010000
        47         -1.12003485        0.007937
        48         -1.12003516        0.007937
        49         -1.12003628        0.007937
        50         -1.12003650        0.007937
        51         -1.12003707        0.007937
        52         -1.12004303        0.007937
        53         -1.12004514        0.007937
        54         -1.12004551        0.007937
        55         -1.12004698        0.007937
        56         -1.12004830        0.007937
        57         -1.12004995        0.007937
        58         -1.12005354        0.007937
        59         -1.12005626        0.007937
        60         -1.12005715        0.007937
        61         -1.12006121        0.007937
        62         -1.12006341        0.007937
        63         -1.12006431        0.007937
        64         -1.12006816        0.007937
        65         -1.12006888        0.007937
        66         -1.12007008        0.007937
        67         -1.12007411        0.007937
        68         -1.12007413        0.007937
        69         -1.12007529        0.007937
        70         -1.12007875        0.007937
        71         -1.12008022        0.007937
        72         -1.12008321        0.007937
        73         -1.12008673        0.007937
        74         -1.12008755        0.007937
        75         -1.12009085        0.007937
        76         -1.12009135        0.007937
        77         -1.12009266        0.007937
        78         -1.12009552        0.007937
        79         -1.12009646        0.007937
        80         -1.12009866        0.007937
        81         -1.12010085        0.007937
        82         -1.12010088        0.007937
        83         -1.12010438        0.007937
        84         -1.12010728        0.007937
        85         -1.12010811        0.007937
        86         -1.12010874        0.007937
        87         -1.12010880        0.007937
        88         -1.12011117        0.007937
        89         -1.12011142        0.007937
        90         -1.12011288        0.007937
        91         -1.12011519        0.007937
        92         -1.12011662        0.007937
        93         -1.12011761        0.007937
        94         -1.12011923        0.007937
        95         -1.12011954        0.007937
        96         -1.12012040        0.007937
        97         -1.12012114        0.007937
        98         -1.12012184        0.007937
        99         -1.12012254        0.007937
       100         -1.12012312        0.007937
       101         -1.12012403        0.007937
       102         -1.12012587        0.007937
       103         -1.12012852        0.007937
       104         -1.12012911        0.007937
       105         -1.12013198        0.007937
       106         -1.12013325        0.007937
       107         -1.12013558        0.007937
       108         -1.12013648        0.007937
       109         -1.12013754        0.007937
       110         -1.12014090        0.007937
       111         -1.12014199        0.007937
       112         -1.12014471        0.007937
       113         -1.12014528        0.007937
       114         -1.12014699        0.007937
       115         -1.12014709        0.007937
       116         -1.12015019        0.007937
       117         -1.12015374        0.007937
       118         -1.12015394        0.007937
       119         -1.12015442        0.007937
       120         -1.12015606        0.007937
       121         -1.12015799        0.007937
       122         -1.12015857        0.007937
       123         -1.12015894        0.007937
       124         -1.12016238        0.007937
       125         -1.12016329        0.007937
       126         -1.12016393        0.007937
       127         -1.12016841        0.007937
       128         -1.12017191        0.007937
       129         -1.12017252        0.007937
       130         -1.12017477        0.007937
       131         -1.12017704        0.007937
       132         -1.12017895        0.007937
       133         -1.12017923        0.007937
       134         -1.12018093        0.007937
       135         -1.12018499        0.007937
       136         -1.12018574        0.007937
       137         -1.12018607        0.007937
       138         -1.12018863        0.007937
       139         -1.12019366        0.007937
       140         -1.12019422        0.007937
       141         -1.12019683        0.007937
       142         -1.12019937        0.007937
       143         -1.12019988        0.007937
       144         -1.12020397        0.007937
       145         -1.12020425        0.007937
       146         -1.12020979        0.007937
       147         -1.12021168        0.007937
       148         -1.12021307        0.007937
       149         -1.12021429        0.007937
       150         -1.12021460        0.007937
       151         -1.12021890        0.007937
       152         -1.12021932        0.007937
       153         -1.12021951        0.007937
       154         -1.12022041        0.007937
       155         -1.12022124        0.007937
       156         -1.12022151        0.007937
       157         -1.12022605        0.007937
       158         -1.12022688        0.007937
       159         -1.12022783        0.007937
       160         -1.12022961        0.007937
       161         -1.12023073        0.007937
       162         -1.12023395        0.007937
       163         -1.12023497        0.007937
       164         -1.12023789        0.007937
       165         -1.12024227        0.007937
       166         -1.12024265        0.007937
       167         -1.12024327        0.007937
       168         -1.12024552        0.007937
       169         -1.12024603        0.007937
       170         -1.12024791        0.007937
       171         -1.12024801        0.007937
       172         -1.12024917        0.007937
       173         -1.12025102        0.007937
       174         -1.12025453        0.007937
       175         -1.12025599        0.007937
       176         -1.12025630        0.007937
       177         -1.12025726        0.007937
       178         -1.12025748        0.007937
       179         -1.12026004        0.007937
       180         -1.12026541        0.007937
       181         -1.12026667        0.007937
       182         -1.12026708        0.007937
       183         -1.12026752        0.007937
       184         -1.12027565        0.007937
       185         -1.12027587        0.007937
       186         -1.12027716        0.007937
       187         -1.12028032        0.007937
       188         -1.12028086        0.007937
       189         -1.12028681        0.007937
       190         -1.12028928        0.007937
       191         -1.12029121        0.007937
       192         -1.12029363        0.007937
       193         -1.12029585        0.007937
       194         -1.12029617        0.007937
       195         -1.12029744        0.007937
       196         -1.12029798        0.007937
       197         -1.12029947        0.007937
       198         -1.12029948        0.007937
       199         -1.12030265        0.007937
       200         -1.12030601        0.006300
       201         -1.12030751        0.006300
       202         -1.12030948        0.006300
       203         -1.12031070        0.006300
       204         -1.12031365        0.006300
       205         -1.12031638        0.006300
       206         -1.12031831        0.006300
       207         -1.12031835        0.006300
       208         -1.12031940        0.006300
       209         -1.12032197        0.006300
       210         -1.12032374        0.006300
       211         -1.12032497        0.006300
       212         -1.12032581        0.006300
       213         -1.12032617        0.006300
       214         -1.12033011        0.006300
       215         -1.12033473        0.006300
       216         -1.12033634        0.006300
       217         -1.12033702        0.006300
       218         -1.12033840        0.006300
       219         -1.12033867        0.006300
       220         -1.12034064        0.006300
       221         -1.12034278        0.006300
       222         -1.12034280        0.006300
       223         -1.12034324        0.006300
       224         -1.12034817        0.006300
       225         -1.12034979        0.006300
       226         -1.12034983        0.006300
       227         -1.12035230        0.006300
       228         -1.12035398        0.006300
       229         -1.12035749        0.006300
       230         -1.12035852        0.006300
       231         -1.12035874        0.006300
       232         -1.12035890        0.006300
       233         -1.12036043        0.006300
       234         -1.12036333        0.006300
       235         -1.12036535        0.006300
       236         -1.12036683        0.006300
       237         -1.12037018        0.006300
       238         -1.12037426        0.006300
       239         -1.12037558        0.006300
       240         -1.12037576        0.006300
       241         -1.12037644        0.006300
       242         -1.12037867        0.006300
       243         -1.12038018        0.006300
       244         -1.12038150        0.006300
       245         -1.12038321        0.006300
       246         -1.12038330        0.006300
       247         -1.12038572        0.006300
       248         -1.12038632        0.006300
       249         -1.12038700        0.006300
       250         -1.12038719        0.006300
       251         -1.12038811        0.006300
       252         -1.12038892        0.006300
       253         -1.12039158        0.006300
       254         -1.12039342        0.006300
       255         -1.12039421        0.006300
       256         -1.12039686        0.006300
       257         -1.12039972        0.006300
       258         -1.12040107        0.006300
       259         -1.12040202        0.006300
       260         -1.12040239        0.006300
       261         -1.12040249        0.006300
       262         -1.12040436        0.006300
       263         -1.12040608        0.006300
       264         -1.12040635        0.006300
       265         -1.12040719        0.006300
       266         -1.12040765        0.006300
       267         -1.12041124        0.006300
       268         -1.12041170        0.006300
       269         -1.12041442        0.006300
       270         -1.12041510        0.006300
       271         -1.12041613        0.006300
       272         -1.12041927        0.006300
       273         -1.12041957        0.006300
       274         -1.12042052        0.006300
       275         -1.12042107        0.006300
       276         -1.12042122        0.006300
       277         -1.12042260        0.006300
       278         -1.12042585        0.006300
       279         -1.12042591        0.006300
       280         -1.12042901        0.006300
       281         -1.12043277        0.006300
       282         -1.12043674        0.006300
       283         -1.12043805        0.006300
       284         -1.12044049        0.006300
       285         -1.12044542        0.006300
       286         -1.12044711        0.006300
       287         -1.12045008        0.006300
       288         -1.12045103        0.006300
       289         -1.12045256        0.006300
       290         -1.12045349        0.006300
       291         -1.12045404        0.006300
       292         -1.12045588        0.006300
       293         -1.12045897        0.006300
       294         -1.12046029        0.006300
       295         -1.12046098        0.006300
       296         -1.12046238        0.006300
       297         -1.12046585        0.006300
       298         -1.12046655        0.006300
       299         -1.12046832        0.006300
       300         -1.12047024        0.006300
       301         -1.12047194        0.006300
       302         -1.12047267        0.006300
       303         -1.12047293        0.006300
       304         -1.12047364        0.006300
       305         -1.12047683        0.006300
       306         -1.12047723        0.006300
       307         -1.12047753        0.006300
       308         -1.12048104        0.006300
       309         -1.12048199        0.006300
       310         -1.12048339        0.006300
       311         -1.12048413        0.006300
       312         -1.12048762        0.006300
       313         -1.12048891        0.006300
       314         -1.12049092        0.006300
       315         -1.12049155        0.006300
       316         -1.12049270        0.006300
       317         -1.12049577        0.006300
       318         -1.12049855        0.006300
       319         -1.12050078        0.006300
       320         -1.12050424        0.006300
       321         -1.12050482        0.006300
       322         -1.12050523        0.006300
       323         -1.12050537        0.006300
       324         -1.12050660        0.006300
       325         -1.12050915        0.006300
       326         -1.12051060        0.006300
       327         -1.12051269        0.006300
       328         -1.12051431        0.006300
       329         -1.12051694        0.006300
       330         -1.12051922        0.006300
       331         -1.12052058        0.006300
       332         -1.12052258        0.006300
       333         -1.12052384        0.006300
       334         -1.12052474        0.006300
       335         -1.12052533        0.006300
       336         -1.12052565        0.006300
       337         -1.12052680        0.006300
       338         -1.12053155        0.006300
       339         -1.12053157        0.006300
       340         -1.12053215        0.006300
       341         -1.12053546        0.006300
       342         -1.12053605        0.006300
       343         -1.12053619        0.006300
       344         -1.12053759        0.006300
       345         -1.12053880        0.006300
       346         -1.12054270        0.006300
       347         -1.12054417        0.006300
       348         -1.12054589        0.006300
       349         -1.12054685        0.006300
       350         -1.12054791        0.006300
       351         -1.12054930        0.006300
       352         -1.12055277        0.006300
       353         -1.12055302        0.006300
       354         -1.12055693        0.006300
       355         -1.12055783        0.006300
       356         -1.12055787        0.006300
       357         -1.12056083        0.006300
       358         -1.12056277        0.006300
       359         -1.12056415        0.006300
       360         -1.12056448        0.006300
       361         -1.12056759        0.006300
       362         -1.12057050        0.006300
       363         -1.12057105        0.006300
       364         -1.12057521        0.006300
       365         -1.12057521        0.006300
       366         -1.12057705        0.006300
       367         -1.12057809        0.006300
       368         -1.12057809        0.006300
       369         -1.12057892        0.006300
       370         -1.12058109        0.006300
       371         -1.12058179        0.006300
       372         -1.12058248        0.006300
       373         -1.12058604        0.006300
       374         -1.12058696        0.006300
       375         -1.12058764        0.006300
       376         -1.12059161        0.006300
       377         -1.12059323        0.006300
       378         -1.12059762        0.006300
       379         -1.12059823        0.006300
       380         -1.12059837        0.006300
       381         -1.12060120        0.006300
       382         -1.12060346        0.006300
       383         -1.12060355        0.006300
       384         -1.12060496        0.006300
       385         -1.12060863        0.006300
       386         -1.12061218        0.006300
       387         -1.12061373        0.006300
       388         -1.12061454        0.006300
       389         -1.12061795        0.006300
       390         -1.12062179        0.006300
       391         -1.12062318        0.006300
       392         -1.12062429        0.006300
       393         -1.12062496        0.006300
       394         -1.12062906        0.006300
       395         -1.12063041        0.006300
       396         -1.12063466        0.006300
       397         -1.12063539        0.006300
       398         -1.12063881        0.006300
       399         -1.12063949        0.006300
       400         -1.12064095        0.006300
       401         -1.12064208        0.006300
       402         -1.12064658        0.006300
       403         -1.12064814        0.006300
       404         -1.12064909        0.006300
       405         -1.12065055        0.006300
       406         -1.12065178        0.006300
       407         -1.12065190        0.006300
       408         -1.12065195        0.006300
       409         -1.12065249        0.006300
       410         -1.12065772        0.006300
       411         -1.12065819        0.006300
       412         -1.12066326        0.006300
       413         -1.12066724        0.006300
       414         -1.12066815        0.006300
       415         -1.12067022        0.006300
       416         -1.12067249        0.006300
       417         -1.12067388        0.006300
       418         -1.12067796        0.006300
       419         -1.12067815        0.006300
       420         -1.12067816        0.006300
       421         -1.12068181        0.006300
       422         -1.12068935        0.006300
       423         -1.12069035        0.006300
       424         -1.12069166        0.006300
       425         -1.12069344        0.006300
       426         -1.12069493        0.006300
       427         -1.12069565        0.006300
       428         -1.12069689        0.006300
       429         -1.12069961        0.006300
       430         -1.12070063        0.006300
       431         -1.12070076        0.006300
       432         -1.12070426        0.006300
       433         -1.12070433        0.006300
       434         -1.12070483        0.006300
       435         -1.12070686        0.006300
       436         -1.12070700        0.006300
       437         -1.12070813        0.006300
       438         -1.12070881        0.006300
       439         -1.12071188        0.006300
       440         -1.12071508        0.006300
       441         -1.12071726        0.006300
       442         -1.12071895        0.006300
       443         -1.12072054        0.006300
       444         -1.12072082        0.006300
       445         -1.12072105        0.006300
       446         -1.12072235        0.006300
       447         -1.12072440        0.006300
       448         -1.12072530        0.006300
       449         -1.12072726        0.006300
       450         -1.12072819        0.006300
       451         -1.12072962        0.006300
       452         -1.12073303        0.006300
       453         -1.12073367        0.006300
       454         -1.12073547        0.006300
       455         -1.12073742        0.006300
       456         -1.12073778        0.006300
       457         -1.12073984        0.006300
       458         -1.12074436        0.006300
       459         -1.12074623        0.006300
       460         -1.12074768        0.006300
       461         -1.12075152        0.006300
       462         -1.12075459        0.006300
       463         -1.12075698        0.006300
       464         -1.12075760        0.006300
       465         -1.12076160        0.006300
       466         -1.12076372        0.006300
       467         -1.12076651        0.006300
       468         -1.12076711        0.006300
       469         -1.12077031        0.006300
       470         -1.12077353        0.006300
       471         -1.12077699        0.006300
       472         -1.12077914        0.006300
       473         -1.12078012        0.006300
       474         -1.12078082        0.006300
       475         -1.12078407        0.006300
       476         -1.12078572        0.006300
       477         -1.12078662        0.006300
       478         -1.12078669        0.006300
       479         -1.12079106        0.006300
       480         -1.12079257        0.006300
       481         -1.12079261        0.006300
       482         -1.12079486        0.006300
       483         -1.12079614        0.006300
       484         -1.12079925        0.006300
       485         -1.12080337        0.006300
       486         -1.12080450        0.006300
       487         -1.12080902        0.006300
       488         -1.12081027        0.006300
       489         -1.12081266        0.006300
       490         -1.12081374        0.006300
       491         -1.12081523        0.006300
       492         -1.12081560        0.006300
       493         -1.12081631        0.006300
       494         -1.12081738        0.006300
       495         -1.12081975        0.006300
       496         -1.12082233        0.006300
       497         -1.12082317        0.006300
       498         -1.12082450        0.006300
       499         -1.12082614        0.006300
       500         -1.12082746        0.006300
       501         -1.12082850        0.006300
       502         -1.12083148        0.006300
       503         -1.12083247        0.006300
       504         -1.12083557        0.006300
       505         -1.12083693        0.006300
       506         -1.12084012        0.006300
       507         -1.12084093        0.006300
       508         -1.12084157        0.006300
       509         -1.12084422        0.006300
       510         -1.12084531        0.006300
       511         -1.12084806        0.006300
       512         -1.12085043        0.006300
       513         -1.12085178        0.006300
       514         -1.12085422        0.006300
       515         -1.12085596        0.006300
       516         -1.12085981        0.006300
       517         -1.12086061        0.006300
       518         -1.12086165        0.006300
       519         -1.12086340        0.006300
       520         -1.12086405        0.006300
       521         -1.12086467        0.006300
       522         -1.12086725        0.006300
       523         -1.12086825        0.006300
       524         -1.12086923        0.006300
       525         -1.12087066        0.006300
       526         -1.12087408        0.006300
       527         -1.12087428        0.006300
       528         -1.12087643        0.006300
       529         -1.12087645        0.006300
       530         -1.12087913        0.006300
       531         -1.12088057        0.006300
       532         -1.12088407        0.006300
       533         -1.12088684        0.006300
       534         -1.12089073        0.006300
       535         -1.12089314        0.006300
       536         -1.12089450        0.006300
       537         -1.12089507        0.006300
       538         -1.12089606        0.006300
       539         -1.12089628        0.006300
       540         -1.12089744        0.006300
       541         -1.12090509        0.006300
       542         -1.12090588        0.006300
       543         -1.12090746        0.006300
       544         -1.12091172        0.006300
       545         -1.12091267        0.006300
       546         -1.12091366        0.006300
       547         -1.12091465        0.006300
       548         -1.12091657        0.006300
       549         -1.12091842        0.006300
       550         -1.12092108        0.006300
       551         -1.12092215        0.006300
       552         -1.12092362        0.006300
       553         -1.12092403        0.006300
       554         -1.12092481        0.006300
       555         -1.12092553        0.006300
       556         -1.12092900        0.006300
       557         -1.12092929        0.006300
       558         -1.12093142        0.006300
       559         -1.12093473        0.006300
       560         -1.12093501        0.006300
       561         -1.12093519        0.006300
       562         -1.12093709        0.006300
       563         -1.12093831        0.006300
       564         -1.12094036        0.006300
       565         -1.12094086        0.006300
       566         -1.12094379        0.006300
       567         -1.12094709        0.006300
       568         -1.12094763        0.006300
       569         -1.12095031        0.006300
       570         -1.12095055        0.006300
       571         -1.12095288        0.006300
       572         -1.12095699        0.006300
       573         -1.12095901        0.006300
       574         -1.12096000        0.006300
       575         -1.12096199        0.006300
       576         -1.12096261        0.006300
       577         -1.12096288        0.006300
       578         -1.12096385        0.006300
       579         -1.12096581        0.006300
       580         -1.12096892        0.006300
       581         -1.12096925        0.006300
       582         -1.12096955        0.006300
       583         -1.12097064        0.006300
       584         -1.12097273        0.006300
       585         -1.12097708        0.006300
       586         -1.12097716        0.006300
       587         -1.12098083        0.006300
       588         -1.12098090        0.006300
       589         -1.12098373        0.006300
       590         -1.12098488        0.006300
       591         -1.12098640        0.006300
       592         -1.12098850        0.006300
       593         -1.12099088        0.006300
       594         -1.12099252        0.006300
       595         -1.12099467        0.006300
       596         -1.12099486        0.006300
       597         -1.12099560        0.006300
       598         -1.12099927        0.006300
       599         -1.12099990        0.006300
       600         -1.12100005        0.006300
       601         -1.12100041        0.006300
       602         -1.12100188        0.006300
       603         -1.12100492        0.006300
       604         -1.12100661        0.006300
       605         -1.12100675        0.006300
       606         -1.12100718        0.006300
       607         -1.12100766        0.006300
       608         -1.12100839        0.006300
       609         -1.12101157        0.006300
       610         -1.12101421        0.006300
       611         -1.12101572        0.006300
       612         -1.12101638        0.006300
       613         -1.12102074        0.006300
       614         -1.12102292        0.006300
       615         -1.12102340        0.006300
       616         -1.12102421        0.006300
       617         -1.12102566        0.006300
       618         -1.12102671        0.006300
       619         -1.12102743        0.006300
       620         -1.12102798        0.006300
       621         -1.12102884        0.006300
       622         -1.12103113        0.006300
       623         -1.12103131        0.006300
       624         -1.12103183        0.006300
       625         -1.12103340        0.006300
       626         -1.12103600        0.006300
       627         -1.12103600        0.006300
       628         -1.12103611        0.006300
       629         -1.12103699        0.006300
       630         -1.12103883        0.006300
       631         -1.12104155        0.006300
       632         -1.12104427        0.006300
       633         -1.12104596        0.006300
       634         -1.12105003        0.006300
       635         -1.12105227        0.006300
       636         -1.12105267        0.006300
       637         -1.12105559        0.006300
       638         -1.12105717        0.006300
       639         -1.12105846        0.006300
       640         -1.12105991        0.006300
       641         -1.12106271        0.006300
       642         -1.12106487        0.006300
       643         -1.12106695        0.006300
       644         -1.12107077        0.006300
       645         -1.12107110        0.006300
       646         -1.12107132        0.006300
       647         -1.12107433        0.006300
       648         -1.12107831        0.006300
       649         -1.12107930        0.006300
       650         -1.12108163        0.006300
       651         -1.12108496        0.006300
       652         -1.12108661        0.006300
       653         -1.12108948        0.006300
       654         -1.12108970        0.006300
       655         -1.12109034        0.006300
       656         -1.12109307        0.006300
       657         -1.12109309        0.006300
       658         -1.12109658        0.006300
       659         -1.12109722        0.006300
       660         -1.12109764        0.006300
       661         -1.12109847        0.006300
       662         -1.12109879        0.006300
       663         -1.12109971        0.006300
       664         -1.12109994        0.006300
       665         -1.12110014        0.006300
       666         -1.12110301        0.006300
       667         -1.12110322        0.006300
       668         -1.12110470        0.006300
       669         -1.12110630        0.006300
       670         -1.12110648        0.006300
       671         -1.12110714        0.006300
       672         -1.12110923        0.006300
       673         -1.12111266        0.006300
       674         -1.12111696        0.006300
       675         -1.12111698        0.006300
       676         -1.12112096        0.006300
       677         -1.12112214        0.006300
       678         -1.12112221        0.006300
       679         -1.12112280        0.006300
       680         -1.12112523        0.006300
       681         -1.12112588        0.006300
       682         -1.12112667        0.006300
       683         -1.12112776        0.006300
       684         -1.12113325        0.006300
       685         -1.12113351        0.006300
       686         -1.12113557        0.006300
       687         -1.12114135        0.006300
       688         -1.12114235        0.006300
       689         -1.12114617        0.006300
       690         -1.12114658        0.006300
       691         -1.12114777        0.006300
       692         -1.12114777        0.006300
       693         -1.12115003        0.006300
       694         -1.12115117        0.006300
       695         -1.12115571        0.006300
       696         -1.12115850        0.006300
       697         -1.12115870        0.006300
       698         -1.12116095        0.006300
       699         -1.12116297        0.006300
       700         -1.12116358        0.006300
       701         -1.12116385        0.006300
       702         -1.12116647        0.006300
       703         -1.12116717        0.006300
       704         -1.12117007        0.006300
       705         -1.12117160        0.006300
       706         -1.12117546        0.006300
       707         -1.12117934        0.006300
       708         -1.12118010        0.006300
       709         -1.12118106        0.006300
       710         -1.12118393        0.006300
       711         -1.12118489        0.006300
       712         -1.12118875        0.006300
       713         -1.12118924        0.006300
       714         -1.12119090        0.006300
       715         -1.12119248        0.006300
       716         -1.12119277        0.006300
       717         -1.12119297        0.006300
       718         -1.12119866        0.006300
       719         -1.12119976        0.006300
       720         -1.12120133        0.006300
       721         -1.12120399        0.006300
       722         -1.12120439        0.006300
       723         -1.12120601        0.006300
       724         -1.12120716        0.006300
       725         -1.12120755        0.006300
       726         -1.12120800        0.006300
       727         -1.12121206        0.006300
       728         -1.12121373        0.006300
       729         -1.12121858        0.006300
       730         -1.12121998        0.006300
       731         -1.12122181        0.006300
       732         -1.12122521        0.006300
       733         -1.12122557        0.006300
       734         -1.12122905        0.006300
       735         -1.12123032        0.006300
       736         -1.12123278        0.006300
       737         -1.12123350        0.006300
       738         -1.12123411        0.006300
       739         -1.12123613        0.006300
       740         -1.12123863        0.006300
       741         -1.12123962        0.006300
       742         -1.12124023        0.006300
       743         -1.12124300        0.006300
       744         -1.12124347        0.006300
       745         -1.12124396        0.006300
       746         -1.12124457        0.006300
       747         -1.12124459        0.006300
       748         -1.12124776        0.006300
       749         -1.12124793        0.006300
       750         -1.12124879        0.006300
       751         -1.12125284        0.006300
       752         -1.12125335        0.006300
       753         -1.12125462        0.006300
       754         -1.12125564        0.006300
       755         -1.12125653        0.006300
       756         -1.12126123        0.006300
       757         -1.12126374        0.006300
       758         -1.12126616        0.006300
       759         -1.12126637        0.006300
       760         -1.12126941        0.006300
       761         -1.12127398        0.006300
       762         -1.12127443        0.006300
       763         -1.12127454        0.006300
       764         -1.12127462        0.006300
       765         -1.12127604        0.006300
       766         -1.12127799        0.006300
       767         -1.12128076        0.006300
       768         -1.12128319        0.006300
       769         -1.12128848        0.006300
       770         -1.12129020        0.006300
       771         -1.12129181        0.006300
       772         -1.12129319        0.006300
       773         -1.12129469        0.006300
       774         -1.12129493        0.006300
       775         -1.12129741        0.006300
       776         -1.12130120        0.006300
       777         -1.12130186        0.006300
       778         -1.12130268        0.006300
       779         -1.12130514        0.006300
       780         -1.12130639        0.006300
       781         -1.12130812        0.006300
       782         -1.12131004        0.006300
       783         -1.12131181        0.006300
       784         -1.12131296        0.006300
       785         -1.12131351        0.006300
       786         -1.12131702        0.006300
       787         -1.12131953        0.006300
       788         -1.12132275        0.006300
       789         -1.12132484        0.006300
       790         -1.12132629        0.006300
       791         -1.12132659        0.006300
       792         -1.12132810        0.006300
       793         -1.12132811        0.006300
       794         -1.12132865        0.006300
       795         -1.12133028        0.006300
       796         -1.12133037        0.006300
       797         -1.12133535        0.006300
       798         -1.12133653        0.006300
       799         -1.12134170        0.006300
       800         -1.12134314        0.006300
       801         -1.12134341        0.006300
       802         -1.12134578        0.006300
       803         -1.12134646        0.006300
       804         -1.12134805        0.006300
       805         -1.12135300        0.006300
       806         -1.12135455        0.006300
       807         -1.12135670        0.006300
       808         -1.12135728        0.006300
       809         -1.12135988        0.006300
       810         -1.12136119        0.006300
       811         -1.12136419        0.006300
       812         -1.12136818        0.006300
       813         -1.12136920        0.006300
       814         -1.12136981        0.006300
       815         -1.12137119        0.006300
       816         -1.12137206        0.006300
       817         -1.12137280        0.006300
       818         -1.12137576        0.006300
       819         -1.12137611        0.006300
       820         -1.12137629        0.006300
       821         -1.12137879        0.006300
       822         -1.12138059        0.006300
       823         -1.12138313        0.006300
       824         -1.12138338        0.006300
       825         -1.12138501        0.006300
       826         -1.12138981        0.006300
       827         -1.12139149        0.006300
       828         -1.12139451        0.006300
       829         -1.12139804        0.006300
       830         -1.12139938        0.006300
       831         -1.12140054        0.006300
       832         -1.12140097        0.006300
       833         -1.12140339        0.006300
       834         -1.12140368        0.006300
       835         -1.12140502        0.006300
       836         -1.12140549        0.006300
       837         -1.12140609        0.006300
       838         -1.12140667        0.006300
       839         -1.12140906        0.006300
       840         -1.12140924        0.006300
       841         -1.12140953        0.006300
       842         -1.12141150        0.006300
       843         -1.12141169        0.006300
       844         -1.12141280        0.006300
       845         -1.12141470        0.006300
       846         -1.12141521        0.006300
       847         -1.12141562        0.006300
       848         -1.12141844        0.006300
       849         -1.12141915        0.006300
       850         -1.12141981        0.006300
       851         -1.12142303        0.006300
       852         -1.12142407        0.006300
       853         -1.12142616        0.006300
       854         -1.12142956        0.006300
       855         -1.12143151        0.006300
       856         -1.12143208        0.006300
       857         -1.12143525        0.006300
       858         -1.12143532        0.006300
       859         -1.12143651        0.006300
       860         -1.12144123        0.006300
       861         -1.12144328        0.006300
       862         -1.12144415        0.006300
       863         -1.12144791        0.006300
       864         -1.12144892        0.006300
       865         -1.12145065        0.006300
       866         -1.12145268        0.006300
       867         -1.12145446        0.006300
       868         -1.12145453        0.006300
       869         -1.12145670        0.006300
       870         -1.12145954        0.006300
       871         -1.12146023        0.006300
       872         -1.12146071        0.006300
       873         -1.12146111        0.006300
       874         -1.12146179        0.006300
       875         -1.12146403        0.006300
       876         -1.12146490        0.006300
       877         -1.12146821        0.006300
       878         -1.12146987        0.006300
       879         -1.12147320        0.006300
       880         -1.12147750        0.006300
       881         -1.12148093        0.006300
       882         -1.12148438        0.006300
       883         -1.12148684        0.006300
       884         -1.12148746        0.006300
       885         -1.12148844        0.006300
       886         -1.12148922        0.006300
       887         -1.12149136        0.006300
       888         -1.12149318        0.006300
       889         -1.12149327        0.006300
       890         -1.12149498        0.006300
       891         -1.12149907        0.006300
       892         -1.12150163        0.006300
       893         -1.12150206        0.006300
       894         -1.12150290        0.006300
       895         -1.12150306        0.006300
       896         -1.12150420        0.006300
       897         -1.12150795        0.006300
       898         -1.12150881        0.006300
       899         -1.12151078        0.006300
       900         -1.12151297        0.006300
       901         -1.12151298        0.006300
       902         -1.12151548        0.006300
       903         -1.12151764        0.006300
       904         -1.12151962        0.006300
       905         -1.12152003        0.006300
       906         -1.12152036        0.006300
       907         -1.12152269        0.006300
       908         -1.12152763        0.006300
       909         -1.12152907        0.006300
       910         -1.12153167        0.006300
       911         -1.12153451        0.006300
       912         -1.12153578        0.006300
       913         -1.12153987        0.006300
       914         -1.12154278        0.006300
       915         -1.12154288        0.006300
       916         -1.12154402        0.006300
       917         -1.12154423        0.006300
       918         -1.12154572        0.006300
       919         -1.12154583        0.006300
       920         -1.12154618        0.006300
       921         -1.12154864        0.006300
       922         -1.12155544        0.006300
       923         -1.12155638        0.006300
       924         -1.12155688        0.006300
       925         -1.12155862        0.006300
       926         -1.12156178        0.006300
       927         -1.12156486        0.006300
       928         -1.12156586        0.006300
       929         -1.12156627        0.006300
       930         -1.12156941        0.006300
       931         -1.12157198        0.006300
       932         -1.12157448        0.006300
       933         -1.12157760        0.006300
       934         -1.12157914        0.006300
       935         -1.12158265        0.006300
       936         -1.12158371        0.006300
       937         -1.12158635        0.006300
       938         -1.12158647        0.006300
       939         -1.12158676        0.006300
       940         -1.12158868        0.006300
       941         -1.12158988        0.006300
       942         -1.12159177        0.006300
       943         -1.12159294        0.006300
       944         -1.12160001        0.006300
       945         -1.12160035        0.006300
       946         -1.12160319        0.006300
       947         -1.12160637        0.006300
       948         -1.12160850        0.006300
       949         -1.12161113        0.006300
       950         -1.12161295        0.006300
       951         -1.12161551        0.006300
       952         -1.12161899        0.006300
       953         -1.12162086        0.006300
       954         -1.12162140        0.006300
       955         -1.12162478        0.006300
       956         -1.12162624        0.006300
       957         -1.12162778        0.006300
       958         -1.12162795        0.006300
       959         -1.12163240        0.006300
       960         -1.12163328        0.006300
       961         -1.12163733        0.006300
       962         -1.12163743        0.006300
       963         -1.12163863        0.006300
       964         -1.12164046        0.006300
       965         -1.12164266        0.006300
       966         -1.12164352        0.006300
       967         -1.12164424        0.006300
       968         -1.12164459        0.006300
       969         -1.12164505        0.006300
       970         -1.12164801        0.006300
       971         -1.12165406        0.006300
       972         -1.12165717        0.006300
       973         -1.12165810        0.006300
       974         -1.12165842        0.006300
       975         -1.12165873        0.006300
       976         -1.12165965        0.006300
       977         -1.12166128        0.006300
       978         -1.12166306        0.006300
       979         -1.12166536        0.006300
       980         -1.12166722        0.006300
       981         -1.12166771        0.006300
       982         -1.12166961        0.006300
       983         -1.12166966        0.006300
       984         -1.12166966        0.006300
       985         -1.12167003        0.006300
       986         -1.12167177        0.006300
       987         -1.12167357        0.006300
       988         -1.12167810        0.006300
       989         -1.12167875        0.006300
       990         -1.12168147        0.006300
       991         -1.12168453        0.006300
       992         -1.12168634        0.006300
       993         -1.12168811        0.006300
       994         -1.12169006        0.006300
       995         -1.12169053        0.006300
       996         -1.12169425        0.006300
       997         -1.12169563        0.006300
       998         -1.12169903        0.006300
       999         -1.12170003        0.006300
      1000         -1.12170137        0.006300
      1001         -1.12170184        0.006300
      1002         -1.12170287        0.006300
      1003         -1.12170303        0.006300
      1004         -1.12170311        0.006300
      1005         -1.12170747        0.006300
      1006         -1.12171101        0.006300
      1007         -1.12171167        0.006300
      1008         -1.12171176        0.006300
      1009         -1.12171540        0.006300
      1010         -1.12171657        0.006300
      1011         -1.12171662        0.006300
      1012         -1.12171748        0.006300
      1013         -1.12172119        0.006300
      1014         -1.12172410        0.006300
      1015         -1.12172672        0.006300
      1016         -1.12172776        0.006300
      1017         -1.12172932        0.006300
      1018         -1.12173100        0.006300
      1019         -1.12173230        0.006300
      1020         -1.12173547        0.006300
      1021         -1.12173822        0.006300
      1022         -1.12173938        0.006300
      1023         -1.12174069        0.006300
      1024         -1.12174092        0.006300
      1025         -1.12174221        0.006300
      1026         -1.12174317        0.006300
      1027         -1.12174443        0.006300
      1028         -1.12174564        0.006300
      1029         -1.12174719        0.006300
      1030         -1.12175076        0.006300
      1031         -1.12175141        0.006300
      1032         -1.12175510        0.006300
      1033         -1.12175574        0.006300
      1034         -1.12175602        0.006300
      1035         -1.12175768        0.006300
      1036         -1.12175951        0.006300
      1037         -1.12176124        0.006300
      1038         -1.12176279        0.006300
      1039         -1.12176323        0.006300
      1040         -1.12176754        0.006300
      1041         -1.12177157        0.006300
      1042         -1.12177469        0.006300
      1043         -1.12177566        0.006300
      1044         -1.12177691        0.006300
      1045         -1.12177806        0.006300
      1046         -1.12177820        0.005000
      1047         -1.12178009        0.005000
      1048         -1.12178180        0.005000
      1049         -1.12178283        0.005000
      1050         -1.12178286        0.005000
      1051         -1.12178318        0.005000
      1052         -1.12178424        0.005000
      1053         -1.12178594        0.005000
      1054         -1.12178670        0.005000
      1055         -1.12178842        0.005000
      1056         -1.12178884        0.005000
      1057         -1.12179092        0.005000
      1058         -1.12179267        0.005000
      1059         -1.12179595        0.005000
      1060         -1.12179662        0.005000
      1061         -1.12179730        0.005000
      1062         -1.12179963        0.005000
      1063         -1.12180100        0.003969
      1064         -1.12180129        0.003969
      1065         -1.12180181        0.003969
      1066         -1.12180214        0.003969
      1067         -1.12180215        0.003969
      1068         -1.12180289        0.003969
      1069         -1.12180344        0.003969
      1070         -1.12180608        0.003969
      1071         -1.12180647        0.003969
      1072         -1.12180772        0.003969
      1073         -1.12181000        0.003969
      1074         -1.12181195        0.003969
      1075         -1.12181275        0.003969
      1076         -1.12181287        0.003969
      1077         -1.12181533        0.003969
      1078         -1.12181635        0.003969
      1079         -1.12181795        0.003969
      1080         -1.12181968        0.003969
      1081         -1.12181982        0.003969
      1082         -1.12181988        0.003969
      1083         -1.12182006        0.003969
      1084         -1.12182063        0.003969
      1085         -1.12182116        0.003969
      1086         -1.12182359        0.003969
      1087         -1.12182521        0.003969
      1088         -1.12182521        0.003969
      1089         -1.12182562        0.003969
      1090         -1.12182757        0.003969
      1091         -1.12182918        0.003969
      1092         -1.12183121        0.003969
      1093         -1.12183128        0.003969
      1094         -1.12183330        0.003969
      1095         -1.12183537        0.003969
      1096         -1.12183619        0.003969
      1097         -1.12183652        0.003969
      1098         -1.12183707        0.003969
      1099         -1.12183803        0.003969
      1100         -1.12183846        0.003969
      1101         -1.12183877        0.003969
      1102         -1.12183976        0.003969
      1103         -1.12184015        0.003969
      1104         -1.12184118        0.003969
      1105         -1.12184238        0.003969
      1106         -1.12184258        0.003969
      1107         -1.12184427        0.003969
      1108         -1.12184513        0.003969
      1109         -1.12184722        0.003969
      1110         -1.12184769        0.003969
      1111         -1.12184983        0.003969
      1112         -1.12185024        0.003969
      1113         -1.12185135        0.003969
      1114         -1.12185174        0.003969
      1115         -1.12185366        0.003969
      1116         -1.12185606        0.003969
      1117         -1.12185612        0.003969
      1118         -1.12185696        0.003969
      1119         -1.12185774        0.003969
      1120         -1.12185799        0.003969
      1121         -1.12185921        0.003969
      1122         -1.12186006        0.003969
      1123         -1.12186039        0.003969
      1124         -1.12186066        0.003969
      1125         -1.12186381        0.003969
      1126         -1.12186417        0.003969
      1127         -1.12186541        0.003969
      1128         -1.12186676        0.003969
      1129         -1.12186751        0.003969
      1130         -1.12186789        0.003969
      1131         -1.12186920        0.003969
      1132         -1.12186998        0.003969
      1133         -1.12187187        0.003969
      1134         -1.12187358        0.003969
      1135         -1.12187452        0.003969
      1136         -1.12187611        0.003969
      1137         -1.12187629        0.003969
      1138         -1.12187681        0.003969
      1139         -1.12187842        0.003969
      1140         -1.12188024        0.003969
      1141         -1.12188229        0.003969
      1142         -1.12188266        0.003969
      1143         -1.12188327        0.003969
      1144         -1.12188421        0.003969
      1145         -1.12188600        0.003969
      1146         -1.12188702        0.003969
      1147         -1.12188809        0.003969
      1148         -1.12188827        0.003969
      1149         -1.12188871        0.003969
      1150         -1.12188988        0.003969
      1151         -1.12189068        0.003969
      1152         -1.12189082        0.003969
      1153         -1.12189124        0.003969
      1154         -1.12189152        0.003969
      1155         -1.12189168        0.003969
      1156         -1.12189209        0.003969
      1157         -1.12189287        0.003969
      1158         -1.12189320        0.003969
      1159         -1.12189388        0.003969
      1160         -1.12189421        0.003969
      1161         -1.12189442        0.003969
      1162         -1.12189494        0.003969
      1163         -1.12189593        0.003969
      1164         -1.12189879        0.003969
      1165         -1.12190245        0.003969
      1166         -1.12190285        0.003969
      1167         -1.12190317        0.003969
      1168         -1.12190321        0.003969
      1169         -1.12190407        0.003969
      1170         -1.12190543        0.003969
      1171         -1.12190789        0.003969
      1172         -1.12190889        0.003969
      1173         -1.12191017        0.003969
      1174         -1.12191208        0.003969
      1175         -1.12191220        0.003969
      1176         -1.12191315        0.003969
      1177         -1.12191424        0.003969
      1178         -1.12191600        0.003969
      1179         -1.12191742        0.003969
      1180         -1.12191772        0.003969
      1181         -1.12191780        0.003969
      1182         -1.12191979        0.003969
      1183         -1.12192031        0.003969
      1184         -1.12192055        0.003969
      1185         -1.12192304        0.003969
      1186         -1.12192359        0.003969
      1187         -1.12192427        0.003969
      1188         -1.12192435        0.003969
      1189         -1.12192489        0.003969
      1190         -1.12192521        0.003969
      1191         -1.12192526        0.003969
      1192         -1.12192720        0.003969
      1193         -1.12192856        0.003969
      1194         -1.12192868        0.003969
      1195         -1.12193084        0.003969
      1196         -1.12193196        0.003969
      1197         -1.12193402        0.003969
      1198         -1.12193429        0.003969
      1199         -1.12193465        0.003969
      1200         -1.12193524        0.003969
      1201         -1.12193710        0.003969
      1202         -1.12193719        0.003969
      1203         -1.12193790        0.003969
      1204         -1.12193913        0.003969
      1205         -1.12194007        0.003969
      1206         -1.12194075        0.003969
      1207         -1.12194139        0.003969
      1208         -1.12194250        0.003969
      1209         -1.12194351        0.003969
      1210         -1.12194388        0.003969
      1211         -1.12194579        0.003969
      1212         -1.12194654        0.003969
      1213         -1.12194677        0.003969
      1214         -1.12194787        0.003969
      1215         -1.12194793        0.003969
      1216         -1.12194821        0.003969
      1217         -1.12194896        0.003969
      1218         -1.12194962        0.003969
      1219         -1.12194987        0.003969
      1220         -1.12195106        0.003969
      1221         -1.12195191        0.003969
      1222         -1.12195272        0.003969
      1223         -1.12195436        0.003969
      1224         -1.12195545        0.003969
      1225         -1.12195555        0.003969
      1226         -1.12195599        0.003969
      1227         -1.12195681        0.003969
      1228         -1.12195714        0.003969
      1229         -1.12195779        0.003969
      1230         -1.12195827        0.003969
      1231         -1.12195949        0.003969
      1232         -1.12195993        0.003969
      1233         -1.12196106        0.003969
      1234         -1.12196109        0.003969
      1235         -1.12196150        0.003969
      1236         -1.12196252        0.003969
      1237         -1.12196436        0.003969
      1238         -1.12196484        0.003969
      1239         -1.12196539        0.003969
      1240         -1.12196542        0.003969
      1241         -1.12196651        0.003969
      1242         -1.12196673        0.003969
      1243         -1.12196931        0.003969
      1244         -1.12197008        0.003969
      1245         -1.12197073        0.003969
      1246         -1.12197162        0.003969
      1247         -1.12197222        0.003969
      1248         -1.12197334        0.003969
      1249         -1.12197381        0.003969
      1250         -1.12197447        0.003969
      1251         -1.12197595        0.003969
      1252         -1.12197777        0.003969
      1253         -1.12197956        0.003969
      1254         -1.12198029        0.003969
      1255         -1.12198047        0.003969
      1256         -1.12198168        0.003969
      1257         -1.12198278        0.003969
      1258         -1.12198461        0.003969
      1259         -1.12198569        0.003969
      1260         -1.12198613        0.003969
      1261         -1.12198624        0.003969
      1262         -1.12198663        0.003969
      1263         -1.12198782        0.003969
      1264         -1.12198970        0.003969
      1265         -1.12199021        0.003969
      1266         -1.12199126        0.003969
      1267         -1.12199146        0.003969
      1268         -1.12199354        0.003969
      1269         -1.12199424        0.003969
      1270         -1.12199483        0.003969
      1271         -1.12199641        0.003969
      1272         -1.12199661        0.003969
      1273         -1.12199723        0.003969
      1274         -1.12199727        0.003969
      1275         -1.12199731        0.003969
      1276         -1.12199806        0.003969
      1277         -1.12199835        0.003969
      1278         -1.12199864        0.003969
      1279         -1.12199871        0.003969
      1280         -1.12199895        0.003969
      1281         -1.12200099        0.003969
      1282         -1.12200184        0.003969
      1283         -1.12200220        0.003969
      1284         -1.12200273        0.003969
      1285         -1.12200531        0.003969
      1286         -1.12200532        0.003969
      1287         -1.12200748        0.003969
      1288         -1.12200762        0.003969
      1289         -1.12200841        0.003969
      1290         -1.12200923        0.003969
      1291         -1.12201020        0.003969
      1292         -1.12201051        0.003969
      1293         -1.12201280        0.003969
      1294         -1.12201378        0.003969
      1295         -1.12201488        0.003969
      1296         -1.12201553        0.003969
      1297         -1.12201740        0.003969
      1298         -1.12201907        0.003969
      1299         -1.12201930        0.003969
      1300         -1.12201932        0.003969
      1301         -1.12202089        0.003969
      1302         -1.12202099        0.003969
      1303         -1.12202148        0.003969
      1304         -1.12202174        0.003969
      1305         -1.12202256        0.003969
      1306         -1.12202407        0.003969
      1307         -1.12202410        0.003969
      1308         -1.12202491        0.003969
      1309         -1.12202561        0.003969
      1310         -1.12202617        0.003969
      1311         -1.12202695        0.003969
      1312         -1.12202746        0.003969
      1313         -1.12202902        0.003969
      1314         -1.12203027        0.003969
      1315         -1.12203130        0.003969
      1316         -1.12203152        0.003969
      1317         -1.12203290        0.003969
      1318         -1.12203516        0.003969
      1319         -1.12203616        0.003969
      1320         -1.12203799        0.003969
      1321         -1.12203874        0.003969
      1322         -1.12203956        0.003969
      1323         -1.12204031        0.003969
      1324         -1.12204160        0.003969
      1325         -1.12204169        0.003969
      1326         -1.12204403        0.003969
      1327         -1.12204542        0.003969
      1328         -1.12204547        0.003969
      1329         -1.12204667        0.003969
      1330         -1.12204709        0.003969
      1331         -1.12204885        0.003969
      1332         -1.12204910        0.003969
      1333         -1.12205100        0.003969
      1334         -1.12205223        0.003969
      1335         -1.12205409        0.003969
      1336         -1.12205517        0.003969
      1337         -1.12205596        0.003969
      1338         -1.12205682        0.003969
      1339         -1.12205748        0.003969
      1340         -1.12205768        0.003969
      1341         -1.12205790        0.003969
      1342         -1.12205805        0.003969
      1343         -1.12205950        0.003969
      1344         -1.12206025        0.003969
      1345         -1.12206100        0.003969
      1346         -1.12206173        0.003969
      1347         -1.12206264        0.003969
      1348         -1.12206406        0.003969
      1349         -1.12206522        0.003969
      1350         -1.12206551        0.003969
      1351         -1.12206587        0.003969
      1352         -1.12206609        0.003969
      1353         -1.12206639        0.003969
      1354         -1.12206791        0.003969
      1355         -1.12206870        0.003969
      1356         -1.12206940        0.003969
      1357         -1.12207012        0.003969
      1358         -1.12207038        0.003969
      1359         -1.12207152        0.003969
      1360         -1.12207314        0.003969
      1361         -1.12207388        0.003969
      1362         -1.12207476        0.003969
      1363         -1.12207563        0.003969
      1364         -1.12207608        0.003969
      1365         -1.12207661        0.003969
      1366         -1.12207834        0.003969
      1367         -1.12207936        0.003969
      1368         -1.12207960        0.003969
      1369         -1.12207974        0.003969
      1370         -1.12208013        0.003969
      1371         -1.12208038        0.003969
      1372         -1.12208192        0.003969
      1373         -1.12208282        0.003969
      1374         -1.12208445        0.003969
      1375         -1.12208565        0.003969
      1376         -1.12208571        0.003969
      1377         -1.12208638        0.003969
      1378         -1.12208756        0.003969
      1379         -1.12208821        0.003969
      1380         -1.12208880        0.003969
      1381         -1.12208890        0.003969
      1382         -1.12208952        0.003969
      1383         -1.12209120        0.003969
      1384         -1.12209138        0.003969
      1385         -1.12209251        0.003969
      1386         -1.12209313        0.003969
      1387         -1.12209318        0.003969
      1388         -1.12209372        0.003969
      1389         -1.12209509        0.003969
      1390         -1.12209603        0.003969
      1391         -1.12209619        0.003969
      1392         -1.12209631        0.003969
      1393         -1.12209829        0.003969
      1394         -1.12209891        0.003969
      1395         -1.12209956        0.003969
      1396         -1.12210092        0.003969
      1397         -1.12210232        0.003969
      1398         -1.12210249        0.003969
      1399         -1.12210310        0.003969
      1400         -1.12210338        0.003969
      1401         -1.12210350        0.003969
      1402         -1.12210472        0.003969
      1403         -1.12210534        0.003969
      1404         -1.12210546        0.003969
      1405         -1.12210557        0.003969
      1406         -1.12210630        0.003969
      1407         -1.12210684        0.003969
      1408         -1.12210859        0.003969
      1409         -1.12210955        0.003969
      1410         -1.12210972        0.003969
      1411         -1.12210983        0.003969
      1412         -1.12211045        0.003969
      1413         -1.12211069        0.003969
      1414         -1.12211224        0.003969
      1415         -1.12211235        0.003969
      1416         -1.12211249        0.003969
      1417         -1.12211366        0.003969
      1418         -1.12211474        0.003969
      1419         -1.12211525        0.003969
      1420         -1.12211673        0.003969
      1421         -1.12211715        0.003969
      1422         -1.12211847        0.003969
      1423         -1.12211976        0.003969
      1424         -1.12211983        0.003969
      1425         -1.12212078        0.003969
      1426         -1.12212103        0.003969
      1427         -1.12212276        0.003969
      1428         -1.12212463        0.003969
      1429         -1.12212585        0.003969
      1430         -1.12212603        0.003969
      1431         -1.12212660        0.003969
      1432         -1.12212729        0.003969
      1433         -1.12212753        0.003969
      1434         -1.12212783        0.003969
      1435         -1.12212831        0.003969
      1436         -1.12212886        0.003969
      1437         -1.12212952        0.003969
      1438         -1.12213006        0.003969
      1439         -1.12213187        0.003969
      1440         -1.12213325        0.003969
      1441         -1.12213411        0.003969
      1442         -1.12213413        0.003969
      1443         -1.12213443        0.003969
      1444         -1.12213453        0.003969
      1445         -1.12213477        0.003969
      1446         -1.12213634        0.003969
      1447         -1.12213706        0.003969
      1448         -1.12213784        0.003969
      1449         -1.12213857        0.003969
      1450         -1.12213921        0.003969
      1451         -1.12213949        0.003969
      1452         -1.12213986        0.003969
      1453         -1.12214039        0.003969
      1454         -1.12214050        0.003969
      1455         -1.12214130        0.003969
      1456         -1.12214289        0.003969
      1457         -1.12214318        0.003969
      1458         -1.12214349        0.003969
      1459         -1.12214370        0.003969
      1460         -1.12214432        0.003969
      1461         -1.12214521        0.003969
      1462         -1.12214549        0.003969
      1463         -1.12214554        0.003969
      1464         -1.12214666        0.003969
      1465         -1.12214762        0.003969
      1466         -1.12214772        0.003969
      1467         -1.12214804        0.003969
      1468         -1.12214998        0.003969
      1469         -1.12215112        0.003969
      1470         -1.12215184        0.003969
      1471         -1.12215352        0.003969
      1472         -1.12215390        0.003969
      1473         -1.12215474        0.003969
      1474         -1.12215533        0.003969
      1475         -1.12215581        0.003969
      1476         -1.12215634        0.003969
      1477         -1.12215759        0.003969
      1478         -1.12215825        0.003969
      1479         -1.12215921        0.003969
      1480         -1.12216000        0.003969
      1481         -1.12216043        0.003969
      1482         -1.12216148        0.003969
      1483         -1.12216225        0.003969
      1484         -1.12216283        0.003969
      1485         -1.12216301        0.003969
      1486         -1.12216367        0.003969
      1487         -1.12216382        0.003969
      1488         -1.12216404        0.003969
      1489         -1.12216487        0.003969
      1490         -1.12216513        0.003969
      1491         -1.12216681        0.003969
      1492         -1.12216811        0.003969
      1493         -1.12216844        0.003969
      1494         -1.12216967        0.003969
      1495         -1.12217042        0.003969
      1496         -1.12217070        0.003969
      1497         -1.12217204        0.003969
      1498         -1.12217286        0.003969
      1499         -1.12217305        0.003969
      1500         -1.12217365        0.003969
      1501         -1.12217501        0.003969
      1502         -1.12217504        0.003969
      1503         -1.12217513        0.003969
      1504         -1.12217674        0.003969
      1505         -1.12217750        0.003969
      1506         -1.12217836        0.003969
      1507         -1.12217981        0.003969
      1508         -1.12218106        0.003969
      1509         -1.12218189        0.003969
      1510         -1.12218216        0.003969
      1511         -1.12218356        0.003969
      1512         -1.12218416        0.003969
      1513         -1.12218452        0.003969
      1514         -1.12218504        0.003969
      1515         -1.12218593        0.003969
      1516         -1.12218595        0.003969
      1517         -1.12218644        0.003969
      1518         -1.12218673        0.003969
      1519         -1.12218733        0.003969
      1520         -1.12218857        0.003969
      1521         -1.12218896        0.003969
      1522         -1.12219081        0.003969
      1523         -1.12219127        0.003969
      1524         -1.12219189        0.003969
      1525         -1.12219273        0.003969
      1526         -1.12219277        0.003969
      1527         -1.12219298        0.003969
      1528         -1.12219299        0.003969
      1529         -1.12219445        0.003969
      1530         -1.12219623        0.003969
      1531         -1.12219667        0.003969
      1532         -1.12219733        0.003969
      1533         -1.12219877        0.003969
      1534         -1.12219901        0.003969
      1535         -1.12220048        0.003969
      1536         -1.12220200        0.003969
      1537         -1.12220291        0.003969
      1538         -1.12220315        0.003969
      1539         -1.12220382        0.003969
      1540         -1.12220485        0.003969
      1541         -1.12220509        0.003969
      1542         -1.12220537        0.003969
      1543         -1.12220672        0.003969
      1544         -1.12220759        0.003969
      1545         -1.12220781        0.003969
      1546         -1.12220797        0.003969
      1547         -1.12220903        0.003969
      1548         -1.12221029        0.003969
      1549         -1.12221135        0.003969
      1550         -1.12221249        0.003969
      1551         -1.12221253        0.003969
      1552         -1.12221365        0.003969
[...]
      6093         -1.12245424        0.000001
      6094         -1.12245424        0.000001
      6095         -1.12245424        0.000001
      6096         -1.12245424        0.000001
      6097         -1.12245424        0.000001
      6098         -1.12245424        0.000001
      6099         -1.12245424        0.000001
      6100         -1.12245424        0.000001
      6101         -1.12245424        0.000001
      6102         -1.12245424        0.000001
      6103         -1.12245424        0.000001
      6104         -1.12245424        0.000001
      6105         -1.12245424        0.000001
      6106         -1.12245424        0.000001
      6107         -1.12245424        0.000001
      6108         -1.12245424        0.000001
      6109         -1.12245424        0.000001
      6110         -1.12245424        0.000001
      6111         -1.12245424        0.000001
      6112         -1.12245424        0.000001
      6113         -1.12245424        0.000001
      6114         -1.12245424        0.000001
      6115         -1.12245424        0.000001
      6116         -1.12245424        0.000001
      6117         -1.12245424        0.000001
      6118         -1.12245424        0.000001
      6119         -1.12245424        0.000001
      6120         -1.12245424        0.000001
      6121         -1.12245424        0.000001
      6122         -1.12245424        0.000001
      6123         -1.12245424        0.000001
      6124         -1.12245424        0.000001
      6125         -1.12245424        0.000001
      6126         -1.12245424        0.000001
      6127         -1.12245424        0.000001
      6128         -1.12245424        0.000001
      6129         -1.12245424        0.000001
      6130         -1.12245424        0.000001
      6131         -1.12245424        0.000001
      6132         -1.12245424        0.000001
      6133         -1.12245424        0.000001
      6134         -1.12245424        0.000001
      6135         -1.12245424        0.000001
      6136         -1.12245424        0.000001
      6137         -1.12245424        0.000001
      6138         -1.12245424        0.000001
      6139         -1.12245424        0.000001
      6140         -1.12245424        0.000001
      6141         -1.12245424        0.000001
      6142         -1.12245424        0.000001
      6143         -1.12245424        0.000001
      6144         -1.12245424        0.000001
      6145         -1.12245424        0.000001
      6146         -1.12245424        0.000001
      6147         -1.12245424        0.000001
      6148         -1.12245424        0.000001
      6149         -1.12245424        0.000001
      6150         -1.12245424        0.000001
      6151         -1.12245424        0.000001
      6152         -1.12245424        0.000001
      6153         -1.12245424        0.000001
      6154         -1.12245424        0.000001
      6155         -1.12245424        0.000001
      6156         -1.12245424        0.000001
      6157         -1.12245424        0.000001
      6158         -1.12245424        0.000001
      6159         -1.12245424        0.000001
      6160         -1.12245424        0.000001
      6161         -1.12245424        0.000001
      6162         -1.12245424        0.000001
      6163         -1.12245424        0.000001
      6164         -1.12245424        0.000001
      6165         -1.12245424        0.000001
      6166         -1.12245424        0.000001
      6167         -1.12245424        0.000001
      6168         -1.12245424        0.000001
      6169         -1.12245424        0.000001
      6170         -1.12245424        0.000001
      6171         -1.12245424        0.000001
      6172         -1.12245424        0.000001
      6173         -1.12245424        0.000001
      6174         -1.12245424        0.000001
      6175         -1.12245424        0.000001
      6176         -1.12245424        0.000001
      6177         -1.12245424        0.000001
      6178         -1.12245424        0.000001
      6179         -1.12245424        0.000001
      6180         -1.12245424        0.000001
      6181         -1.12245424        0.000001
      6182         -1.12245424        0.000001
      6183         -1.12245424        0.000001
      6184         -1.12245424        0.000001
      6185         -1.12245424        0.000001
      6186         -1.12245424        0.000001
      6187         -1.12245424        0.000001
      6188         -1.12245424        0.000001
      6189         -1.12245424        0.000001
      6190         -1.12245424        0.000001
      6191         -1.12245424        0.000001
      6192         -1.12245424        0.000001
      6193         -1.12245424        0.000001
      6194         -1.12245424        0.000001
      6195         -1.12245424        0.000001
      6196         -1.12245424        0.000001
      6197         -1.12245424        0.000001
      6198         -1.12245424        0.000001
      6199         -1.12245424        0.000001
      6200         -1.12245424        0.000001
      6201         -1.12245424        0.000001
      6202         -1.12245424        0.000001
      6203         -1.12245424        0.000001
      6204         -1.12245424        0.000001
      6205         -1.12245424        0.000001
      6206         -1.12245424        0.000001
      6207         -1.12245424        0.000001
      6208         -1.12245424        0.000001
      6209         -1.12245424        0.000001
      6210         -1.12245424        0.000001
      6211         -1.12245424        0.000001
      6212         -1.12245424        0.000001
      6213         -1.12245424        0.000001
      6214         -1.12245424        0.000001
      6215         -1.12245424        0.000001
      6216         -1.12245424        0.000001
      6217         -1.12245424        0.000001
      6218         -1.12245424        0.000001
      6219         -1.12245424        0.000001
      6220         -1.12245424        0.000001
      6221         -1.12245424        0.000001
      6222         -1.12245424        0.000001
      6223         -1.12245424        0.000001
      6224         -1.12245424        0.000001
      6225         -1.12245424        0.000001
      6226         -1.12245424        0.000001
      6227         -1.12245424        0.000001
      6228         -1.12245424        0.000001
      6229         -1.12245424        0.000001
      6230         -1.12245424        0.000001
      6231         -1.12245424        0.000001
      6232         -1.12245424        0.000001
      6233         -1.12245424        0.000001
      6234         -1.12245424        0.000001
      6235         -1.12245424        0.000001
      6236         -1.12245424        0.000001
      6237         -1.12245424        0.000001
      6238         -1.12245424        0.000001
      6239         -1.12245424        0.000001
      6240         -1.12245424        0.000001
      6241         -1.12245424        0.000001
      6242         -1.12245424        0.000001
      6243         -1.12245424        0.000001
      6244         -1.12245424        0.000001
      6245         -1.12245424        0.000001
      6246         -1.12245424        0.000001
      6247         -1.12245424        0.000001
      6248         -1.12245424        0.000001
      6249         -1.12245424        0.000001
      6250         -1.12245424        0.000001
      6251         -1.12245424        0.000001
      6252         -1.12245424        0.000001
      6253         -1.12245424        0.000001
      6254         -1.12245424        0.000001
      6255         -1.12245424        0.000001
      6256         -1.12245424        0.000001
      6257         -1.12245424        0.000001
      6258         -1.12245424        0.000001
      6259         -1.12245424        0.000001
      6260         -1.12245424        0.000001
      6261         -1.12245424        0.000001
      6262         -1.12245424        0.000001
      6263         -1.12245424        0.000001
      6264         -1.12245424        0.000001
      6265         -1.12245424        0.000001
      6266         -1.12245424        0.000001
      6267         -1.12245424        0.000001
      6268         -1.12245424        0.000001
      6269         -1.12245424        0.000001
      6270         -1.12245424        0.000001
      6271         -1.12245424        0.000001
      6272         -1.12245424        0.000001
      6273         -1.12245424        0.000001
      6274         -1.12245424        0.000001

 Reached Convergence

 WFN1                     :
 --------------------------
 Total WFN1 energy  =          -1.1224542418
 1-Electron energy  =          -2.2881889100
 2-Electron energy  =           0.5990953537
 Correlation energy =          -0.0255349838
 DFT XC energy      =           0.0000000000
 Entropy energy     =           0.0000000000
 Nuclear energy     =           0.5921742982

 conventional Hartree-Fock:
 --------------------------
 Total SCF energy  =          -1.1150896491
 2-Electron energy =           0.6064599465

                WFN1 Final Natural orbital energies and occupations
                ---------------------------------------------------

              Alpha       Beta            Alpha       Beta  
            --------    --------        --------    --------
       1      0.0000      0.0000          0.9915      0.9915
       2      0.0000      0.0000          0.0024      0.0024
       3      0.0000      0.0000          0.0017      0.0017
       4      0.0000      0.0000          0.0045      0.0045

             WFN1 Final Correlation function energies and occupations
             --------------------------------------------------------

              Alpha       Beta            Alpha       Beta  
            --------    --------        --------    --------
       1      0.0000      0.0000          1.0000      1.0000
       2      0.0000      0.0000          0.0000      0.0000
       3      0.0000      0.0000          0.0000      0.0000
       4      0.0000      0.0000          0.0000      0.0000

                WFN1 Final alpha-alpha 2-matrix occupation numbers
                --------------------------------------------------


 global array: g_momo1[1:4,1:4],  handle: -990 

            1           2           3           4  
       ----------- ----------- ----------- -----------
   1       0.00000     0.00000    -0.00000     0.00000
   2       0.00000     0.00000    -0.00000     0.00000
   3       0.00000     0.00000    -0.00000     0.00000
   4       0.00000     0.00000    -0.00000     0.00000

                 WFN1 Final beta-beta 2-matrix occupation numbers
                 ------------------------------------------------


 global array: g_momo2[1:4,1:4],  handle: -989 

            1           2           3           4  
       ----------- ----------- ----------- -----------
   1       0.00000     0.00000    -0.00000     0.00000
   2       0.00000     0.00000    -0.00000     0.00000
   3       0.00000     0.00000    -0.00000     0.00000
   4       0.00000     0.00000    -0.00000     0.00000

                  WFN1 Final alpha Correlation Function Analysis
                  ----------------------------------------------


 global array: Ca[1:4,1:4],  handle: -981 

                     1                       2                       3                       4  
       ----------------------- ----------------------- ----------------------- -----------------------
   1      -0.77019,   -0.63109     0.04661,   -0.00754     0.02731,    0.02620     0.03090,   -0.06255
   2       0.04292,   -0.02315     0.25227,   -0.96216     0.05389,    0.04847    -0.04511,    0.03057
   3      -0.03688,   -0.01797     0.03353,   -0.06763    -0.69752,   -0.68404     0.13295,    0.14317
   4      -0.05106,    0.04315     0.04975,    0.01406     0.14500,    0.13359     0.69164,    0.68965

                   WFN1 Final beta Correlation Function Analysis
                   ---------------------------------------------


 global array: Cb[1:4,1:4],  handle: -980 

                     1                       2                       3                       4  
       ----------------------- ----------------------- ----------------------- -----------------------
   1      -0.77019,   -0.63109     0.04661,   -0.00754     0.02731,    0.02620     0.03090,   -0.06255
   2       0.04292,   -0.02315     0.25227,   -0.96216     0.05389,    0.04847    -0.04511,    0.03057
   3      -0.03688,   -0.01797     0.03353,   -0.06763    -0.69752,   -0.68404     0.13295,    0.14317
   4      -0.05106,    0.04315     0.04975,    0.01406     0.14500,    0.13359     0.69164,    0.68965

                     WFN1 Final Alpha Natural Orbital Analysis
                     -----------------------------------------

 Vector    1  Occ=9.914702D-01  E= 0.000000D+00
              MO Center=  0.0D+00,  0.0D+00,  1.8D-07, r^2= 8.4D-01
   Bfn.  Coefficient  Atom+Function         Bfn.  Coefficient  Atom+Function  
  ----- ------------  ---------------      ----- ------------  ---------------
     2     -0.307082  1 H  s                  4     -0.307083  2 H  s          
     1     -0.304449  1 H  s                  3     -0.304449  2 H  s          

 Vector    2  Occ=2.377675D-03  E= 0.000000D+00
              MO Center=  0.0D+00,  0.0D+00,  5.2D-05, r^2= 2.7D+00
   Bfn.  Coefficient  Atom+Function         Bfn.  Coefficient  Atom+Function  
  ----- ------------  ---------------      ----- ------------  ---------------
     2      1.843562  1 H  s                  4     -1.843614  2 H  s          
     1     -0.410676  1 H  s                  3      0.410739  2 H  s          

 Vector    3  Occ=1.683163D-03  E= 0.000000D+00
              MO Center=  0.0D+00,  0.0D+00, -4.9D-05, r^2= 1.6D+00
   Bfn.  Coefficient  Atom+Function         Bfn.  Coefficient  Atom+Function  
  ----- ------------  ---------------      ----- ------------  ---------------
     1      0.829648  1 H  s                  3      0.829631  2 H  s          
     2     -0.695444  1 H  s                  4     -0.695310  2 H  s          

 Vector    4  Occ=4.468994D-03  E= 0.000000D+00
              MO Center=  0.0D+00,  0.0D+00, -3.7D-06, r^2= 5.0D-01
   Bfn.  Coefficient  Atom+Function         Bfn.  Coefficient  Atom+Function  
  ----- ------------  ---------------      ----- ------------  ---------------
     1      0.950826  1 H  s                  3     -0.950814  2 H  s          
     2     -0.333772  1 H  s                  4      0.333762  2 H  s          


                     WFN1 Final Beta Natural Orbital Analysis
                     ----------------------------------------

 Vector    1  Occ=9.914702D-01  E= 0.000000D+00
              MO Center=  0.0D+00,  0.0D+00,  1.8D-07, r^2= 8.4D-01
   Bfn.  Coefficient  Atom+Function         Bfn.  Coefficient  Atom+Function  
  ----- ------------  ---------------      ----- ------------  ---------------
     2     -0.307082  1 H  s                  4     -0.307083  2 H  s          
     1     -0.304449  1 H  s                  3     -0.304449  2 H  s          

 Vector    2  Occ=2.377675D-03  E= 0.000000D+00
              MO Center=  0.0D+00,  0.0D+00,  5.2D-05, r^2= 2.7D+00
   Bfn.  Coefficient  Atom+Function         Bfn.  Coefficient  Atom+Function  
  ----- ------------  ---------------      ----- ------------  ---------------
     2      1.843562  1 H  s                  4     -1.843614  2 H  s          
     1     -0.410676  1 H  s                  3      0.410739  2 H  s          

 Vector    3  Occ=1.683163D-03  E= 0.000000D+00
              MO Center=  0.0D+00,  0.0D+00, -4.9D-05, r^2= 1.6D+00
   Bfn.  Coefficient  Atom+Function         Bfn.  Coefficient  Atom+Function  
  ----- ------------  ---------------      ----- ------------  ---------------
     1      0.829648  1 H  s                  3      0.829631  2 H  s          
     2     -0.695444  1 H  s                  4     -0.695310  2 H  s          

 Vector    4  Occ=4.468994D-03  E= 0.000000D+00
              MO Center=  0.0D+00,  0.0D+00, -3.7D-06, r^2= 5.0D-01
   Bfn.  Coefficient  Atom+Function         Bfn.  Coefficient  Atom+Function  
  ----- ------------  ---------------      ----- ------------  ---------------
     1      0.950826  1 H  s                  3     -0.950814  2 H  s          
     2     -0.333772  1 H  s                  4      0.333762  2 H  s          


 Task  times  cpu:      102.1s     wall:      134.9s
 Summary of allocated global arrays
-----------------------------------
  No active global arrays



                         GA Statistics for process    0
                         ------------------------------

       create   destroy   get      put      acc     scatter   gather  read&inc
calls:   44       44     7.34e+07 1.51e+05 2.00e+05    0        0       11     
number of processes/call 1.00e+00 1.00e+00 1.00e+00 0.00e+00 0.00e+00
bytes total:             9.43e+09 2.56e+07 3.20e+07 0.00e+00 0.00e+00 8.80e+01
bytes remote:            0.00e+00 0.00e+00 0.00e+00 0.00e+00 0.00e+00 0.00e+00
Max memory consumed for GA by this process: 10624 bytes
MA_summarize_allocated_blocks: starting scan ...
MA_summarize_allocated_blocks: scan completed: 0 heap blocks, 0 stack blocks
MA usage statistics:

	allocation statistics:
					      heap	     stack
					      ----	     -----
	current number of blocks	         0	         0
	maximum number of blocks	        19	        17
	current total bytes		         0	         0
	maximum total bytes		   3204344	  22508664
	maximum total K-bytes		      3205	     22509
	maximum total M-bytes		         4	        23


                                NWChem Input Module
                                -------------------





                                     CITATION
                                     --------
                Please cite the following reference when publishing
                           results obtained with NWChem:

                 M. Valiev, E.J. Bylaska, N. Govind, K. Kowalski,
              T.P. Straatsma, H.J.J. van Dam, D. Wang, J. Nieplocha,
                        E. Apra, T.L. Windus, W.A. de Jong
                 "NWChem: a comprehensive and scalable open-source
                  solution for large scale molecular simulations"
                      Comput. Phys. Commun. 181, 1477 (2010)
                           doi:10.1016/j.cpc.2010.04.018

                                      AUTHORS
                                      -------
          E. Apra, E. J. Bylaska, W. A. de Jong, N. Govind, K. Kowalski,
       T. P. Straatsma, M. Valiev, H. J. J. van Dam, D. Wang, T. L. Windus,
        J. Hammond, J. Autschbach, K. Bhaskaran-Nair, J. Brabec, K. Lopata,
    S. A. Fischer, S. Krishnamoorthy, M. Jacquelin, W. Ma, M. Klemm, O. Villa,
      Y. Chen, V. Anisimov, F. Aquino, S. Hirata, M. T. Hackler, V. Konjkov,
      T. Risthaus, M. Malagoli, A. Marenich, A. Otero-de-la-Roza, J. Mullin,
        P. Nichols, R. Peverati, J. Pittner, Y. Zhao, P.-D. Fan, A. Fonari,
       M. Williamson, R. J. Harrison, J. R. Rehr, M. Dupuis, D. Silverstein,
    D. M. A. Smith, J. Nieplocha, V. Tipparaju, M. Krishnan, B. E. Van Kuiken,
        A. Vazquez-Mayagoitia, L. Jensen, M. Swart, Q. Wu, T. Van Voorhis,
     A. A. Auer, M. Nooijen, L. D. Crosby, E. Brown, G. Cisneros, G. I. Fann,
   H. Fruchtl, J. Garza, K. Hirao, R. A. Kendall, J. A. Nichols, K. Tsemekhman,
    K. Wolinski, J. Anchell, D. E. Bernholdt, P. Borowski, T. Clark, D. Clerc,
   H. Dachsel, M. J. O. Deegan, K. Dyall, D. Elwood, E. Glendening, M. Gutowski,
   A. C. Hess, J. Jaffe, B. G. Johnson, J. Ju, R. Kobayashi, R. Kutteh, Z. Lin,
   R. Littlefield, X. Long, B. Meng, T. Nakajima, S. Niu, L. Pollack, M. Rosing,
   K. Glaesemann, G. Sandrone, M. Stave, H. Taylor, G. Thomas, J. H. van Lenthe,
                               A. T. Wong, Z. Zhang.

 Total times  cpu:      102.1s     wall:      134.9s
