 argument  1 = input-wf.nw



============================== echo of input deck ==============================
echo
start wfn1_dat
geometry units au noautoz
  H 0 0 -1.44434600000000000000
  H 0 0  1.44434600000000000000
  symmetry cs
end
basis
  H library 6-31g
end
set wfn1:input_vectors "atomic"
set wfn1:solver "monte-carlo"
set wfn1:print_error F
set wfn1:t_initial 0.1
#set wfn1:corr_expr "wfn1_mx"
set wfn1:corr_expr "wfn1c"
set wfn1:t_bath 0.0
set wfn1:maxit  20000
task wfn1 energy
================================================================================


                                         
                                         


              Northwest Computational Chemistry Package (NWChem) 6.8
              ------------------------------------------------------


                    Environmental Molecular Sciences Laboratory
                       Pacific Northwest National Laboratory
                                Richland, WA 99352

                              Copyright (c) 1994-2015
                       Pacific Northwest National Laboratory
                            Battelle Memorial Institute

             NWChem is an open-source computational chemistry package
                        distributed under the terms of the
                      Educational Community License (ECL) 2.0
             A copy of the license is included with this distribution
                              in the LICENSE.TXT file

                                  ACKNOWLEDGMENT
                                  --------------

            This software and its documentation were developed at the
            EMSL at Pacific Northwest National Laboratory, a multiprogram
            national laboratory, operated for the U.S. Department of Energy
            by Battelle under Contract Number DE-AC05-76RL01830. Support
            for this work was provided by the Department of Energy Office
            of Biological and Environmental Research, Office of Basic
            Energy Sciences, and the Office of Advanced Scientific Computing.


           Job information
           ---------------

    hostname        = erato
    program         = ../../../bin/LINUX64/nwchem
    date            = Mon Mar  1 01:34:58 2021

    compiled        = Sun_Feb_28_18:02:42_2021
    source          = /home/hvandam/nwchem-1-wfn1
    nwchem branch   = Development
    nwchem revision = nwchem_on_git-124-gad72d19fff205e319ffbbf2bca37a04ded6ad57b
    ga revision     = nwchem_on_git-124-gad72d19
    use scalapack   = F
    input           = input-wf.nw
    prefix          = wfn1_dat.
    data base       = ./wfn1_dat.db
    status          = startup
    nproc           =        1
    time left       =     -1s



           Memory information
           ------------------

    heap     =   13107200 doubles =    100.0 Mbytes
    stack    =   13107197 doubles =    100.0 Mbytes
    global   =   26214400 doubles =    200.0 Mbytes (distinct from heap & stack)
    total    =   52428797 doubles =    400.0 Mbytes
    verify   = yes
    hardfail = no 


           Directory information
           ---------------------

  0 permanent = .
  0 scratch   = .




                                NWChem Input Module
                                -------------------


 Turning off AUTOSYM since
 SYMMETRY directive was detected!



                             Geometry "geometry" -> ""
                             -------------------------

 Output coordinates in a.u. (scale by  1.000000000 to convert to a.u.)

  No.       Tag          Charge          X              Y              Z
 ---- ---------------- ---------- -------------- -------------- --------------
    1 H                    1.0000     0.00000000     0.00000000    -1.44434600
    2 H                    1.0000     0.00000000     0.00000000     1.44434600

      Atomic Mass 
      ----------- 

      H                  1.007825


 Effective nuclear repulsion energy (a.u.)       0.3461774395

            Nuclear Dipole moment (a.u.) 
            ----------------------------
        X                 Y               Z
 ---------------- ---------------- ----------------
     0.0000000000     0.0000000000     0.0000000000

      Symmetry information
      --------------------

 Group name             Cs        
 Group number              2
 Group order               2
 No. of unique centers     1

      Symmetry unique atoms

     1


            XYZ format geometry
            -------------------
     2
 geometry
 H                     0.00000000     0.00000000    -0.76431504
 H                     0.00000000     0.00000000     0.76431504

                      Basis "ao basis" -> "" (cartesian)
                      -----
  H (Hydrogen)
  ------------
            Exponent  Coefficients 
       -------------- ---------------------------------------------------------
  1 S  1.87311370E+01  0.033495
  1 S  2.82539370E+00  0.234727
  1 S  6.40121700E-01  0.813757

  2 S  1.61277800E-01  1.000000



 Summary of "ao basis" -> "" (cartesian)
 ------------------------------------------------------------------------------
       Tag                 Description            Shells   Functions and Types
 ---------------- ------------------------------  ------  ---------------------
 H                           6-31g                   2        2   2s



                                NWChem WFN1 Module
                                ------------------



          No. of electrons :     2
           Alpha electrons :     1
            Beta electrons :     1
          Charge           :     0
          Spin multiplicity:     1

 HvD: wfn1_inpdft
 HvD: nquad_task =                     1
 HvD: iangquad   =                     0
 HvD: gridtype   = user      
 HvD: leb        =  T
 HvD: radgrid    = murakn    
 HvD: trunc_neigh=  T
 HvD: lssw       =  T
 HvD: whichssw   = erf1    
 HvD: mxnrad     =                     0
 HvD: mxnang     =                     0
 HVD: wfn1: movecs_in  = atomic                                                                                                                                                                                                                                                          
 HVD: wfn1: movecs_out = ./wfn1_dat.movecs                                                                                                                                                                                                                                               

      Superposition of Atomic Density Guess
      -------------------------------------

 Sum of atomic energies:          -0.99646508

      Non-variational initial energy
      ------------------------------

 Total energy =      -0.723490
 1-e energy   =      -1.682528
 2-e energy   =       0.612860
 HOMO         =      -0.332986
 LUMO         =      -0.032404

 iteration              energy           error
 ---------              ------           -----
         0         -1.00538173        0.080000
         1         -1.00952952        0.080000
         2         -1.01118830        0.080000
         3         -1.01267865        0.080000
         4         -1.01403998        0.080000
         5         -1.01595595        0.080000
         6         -1.01777438        0.080000
         7         -1.01886220        0.080000
         8         -1.01992100        0.080000
         9         -1.02105375        0.080000
        10         -1.02152634        0.080000
        11         -1.02162756        0.080000
        12         -1.02219005        0.080000
        13         -1.02315137        0.080000
        14         -1.02467831        0.080000
        15         -1.02534810        0.080000
        16         -1.02544106        0.080000
        17         -1.02605749        0.080000
        18         -1.02640268        0.080000
        19         -1.02682161        0.080000
        20         -1.02781447        0.080000
        21         -1.02918274        0.080000
        22         -1.02924407        0.080000
        23         -1.02950704        0.080000
        24         -1.03064347        0.080000
        25         -1.03137708        0.080000
        26         -1.03149315        0.080000
        27         -1.03154152        0.080000
        28         -1.03207869        0.080000
        29         -1.03228457        0.080000
        30         -1.03229201        0.080000
        31         -1.03251226        0.080000
        32         -1.03346823        0.080000
        33         -1.03376434        0.080000
        34         -1.03414843        0.080000
        35         -1.03436915        0.080000
        36         -1.03458061        0.080000
        37         -1.03477425        0.080000
        38         -1.03481183        0.080000
        39         -1.03499991        0.080000
        40         -1.03522642        0.080000
        41         -1.03545605        0.080000
        42         -1.03555575        0.080000
        43         -1.03557343        0.080000
        44         -1.03566715        0.080000
        45         -1.03567139        0.080000
        46         -1.03574373        0.080000
        47         -1.03581749        0.080000
        48         -1.03589329        0.080000
        49         -1.03592093        0.080000
        50         -1.03594760        0.080000
        51         -1.03599607        0.063496
        52         -1.03600141        0.063496
        53         -1.03603877        0.063496
        54         -1.03611302        0.063496
        55         -1.03615720        0.063496
        56         -1.03617622        0.063496
        57         -1.03617799        0.050397
        58         -1.03618645        0.031748
        59         -1.03618863        0.031748
        60         -1.03619930        0.031748
        61         -1.03620266        0.031748
        62         -1.03620580        0.025198
        63         -1.03620632        0.015874
        64         -1.03620701        0.015874
        65         -1.03620906        0.015874
        66         -1.03620917        0.015874
        67         -1.03620998        0.015874
        68         -1.03621431        0.015874
        69         -1.03621439        0.012599
        70         -1.03621486        0.012599
        71         -1.03621492        0.012599
        72         -1.03621503        0.012599
        73         -1.03621518        0.012599
        74         -1.03621530        0.012599
        75         -1.03621531        0.012599
        76         -1.03621552        0.012599
        77         -1.03621557        0.012599
        78         -1.03621572        0.012599
        79         -1.03621619        0.003969
        80         -1.03621632        0.003150
        81         -1.03621648        0.003150
        82         -1.03621654        0.003150
        83         -1.03621659        0.003150
        84         -1.03621669        0.003150
        85         -1.03621671        0.003150
        86         -1.03621675        0.002500
        87         -1.03621697        0.002500
        88         -1.03621702        0.002500
        89         -1.03621706        0.002500
        90         -1.03621718        0.002500
        91         -1.03621735        0.002500
        92         -1.03621739        0.002500
        93         -1.03621746        0.002500
        94         -1.03621749        0.002500
        95         -1.03621754        0.002500
        96         -1.03621759        0.001984
        97         -1.03621761        0.001984
        98         -1.03621763        0.001984
        99         -1.03621767        0.001984
       100         -1.03621770        0.001984
       101         -1.03621776        0.001984
       102         -1.03621776        0.001984
       103         -1.03621782        0.001984
       104         -1.03621783        0.001984
       105         -1.03621786        0.001984
       106         -1.03621788        0.001984
       107         -1.03621790        0.001575
       108         -1.03621792        0.001575
       109         -1.03621796        0.001575
       110         -1.03621798        0.001250
       111         -1.03621800        0.001250
       112         -1.03621801        0.001250
       113         -1.03621803        0.001250
       114         -1.03621803        0.001250
       115         -1.03621803        0.001250
       116         -1.03621804        0.001250
       117         -1.03621804        0.001250
       118         -1.03621805        0.001250
       119         -1.03621809        0.001250
       120         -1.03621814        0.001250
       121         -1.03621815        0.000992
       122         -1.03621816        0.000992
       123         -1.03621817        0.000992
       124         -1.03621817        0.000992
       125         -1.03621819        0.000992
       126         -1.03621819        0.000992
       127         -1.03621819        0.000992
       128         -1.03621819        0.000992
       129         -1.03621820        0.000787
       130         -1.03621820        0.000625
       131         -1.03621821        0.000625
       132         -1.03621821        0.000625
       133         -1.03621822        0.000625
       134         -1.03621822        0.000625
       135         -1.03621822        0.000496
       136         -1.03621823        0.000496
       137         -1.03621823        0.000496
       138         -1.03621824        0.000496
       139         -1.03621824        0.000496
       140         -1.03621824        0.000496
       141         -1.03621824        0.000394
       142         -1.03621825        0.000394
       143         -1.03621825        0.000394
       144         -1.03621825        0.000394
       145         -1.03621825        0.000394
       146         -1.03621825        0.000394
       147         -1.03621826        0.000394
       148         -1.03621826        0.000394
       149         -1.03621826        0.000394
       150         -1.03621826        0.000394
       151         -1.03621826        0.000394
       152         -1.03621827        0.000394
       153         -1.03621827        0.000394
       154         -1.03621827        0.000394
       155         -1.03621827        0.000394
       156         -1.03621827        0.000313
       157         -1.03621827        0.000313
       158         -1.03621827        0.000313
       159         -1.03621827        0.000313
       160         -1.03621828        0.000313
       161         -1.03621828        0.000313
       162         -1.03621828        0.000313
       163         -1.03621828        0.000313
       164         -1.03621828        0.000248
       165         -1.03621828        0.000248
       166         -1.03621828        0.000248
       167         -1.03621828        0.000248
       168         -1.03621828        0.000197
       169         -1.03621828        0.000197
       170         -1.03621828        0.000197
       171         -1.03621828        0.000197
       172         -1.03621828        0.000197
       173         -1.03621828        0.000197
       174         -1.03621829        0.000197
       175         -1.03621829        0.000197
       176         -1.03621829        0.000197
       177         -1.03621829        0.000197
       178         -1.03621829        0.000197
       179         -1.03621829        0.000156
       180         -1.03621829        0.000156
       181         -1.03621829        0.000156
       182         -1.03621829        0.000156
       183         -1.03621829        0.000124
       184         -1.03621829        0.000124
       185         -1.03621829        0.000124
       186         -1.03621829        0.000124
       187         -1.03621829        0.000124
       188         -1.03621829        0.000124
       189         -1.03621829        0.000124
       190         -1.03621829        0.000124
       191         -1.03621829        0.000124
       192         -1.03621829        0.000124
       193         -1.03621829        0.000124
       194         -1.03621829        0.000124
       195         -1.03621829        0.000124
       196         -1.03621829        0.000124
       197         -1.03621829        0.000124
       198         -1.03621829        0.000124
       199         -1.03621829        0.000124
       200         -1.03621829        0.000124
       201         -1.03621829        0.000124
       202         -1.03621829        0.000124
       203         -1.03621829        0.000124
       204         -1.03621829        0.000124
       205         -1.03621829        0.000124
       206         -1.03621829        0.000124
       207         -1.03621829        0.000124
       208         -1.03621829        0.000078
       209         -1.03621829        0.000078
       210         -1.03621829        0.000078
       211         -1.03621829        0.000078
       212         -1.03621829        0.000078
       213         -1.03621829        0.000078
       214         -1.03621829        0.000078
       215         -1.03621829        0.000078
       216         -1.03621829        0.000078
       217         -1.03621829        0.000078
       218         -1.03621829        0.000078
       219         -1.03621829        0.000078
       220         -1.03621830        0.000078
       221         -1.03621830        0.000078
       222         -1.03621830        0.000078
       223         -1.03621830        0.000078
       224         -1.03621830        0.000078
       225         -1.03621830        0.000078
       226         -1.03621830        0.000078
       227         -1.03621830        0.000078
       228         -1.03621830        0.000062
       229         -1.03621830        0.000062
       230         -1.03621830        0.000062
       231         -1.03621830        0.000062
       232         -1.03621830        0.000062
       233         -1.03621830        0.000062
       234         -1.03621830        0.000062
       235         -1.03621830        0.000062
       236         -1.03621830        0.000062
       237         -1.03621830        0.000062
       238         -1.03621830        0.000062
       239         -1.03621830        0.000062
       240         -1.03621830        0.000062
       241         -1.03621830        0.000062
       242         -1.03621830        0.000062
       243         -1.03621830        0.000062
       244         -1.03621830        0.000049
       245         -1.03621830        0.000049
       246         -1.03621830        0.000049
       247         -1.03621830        0.000049
       248         -1.03621830        0.000049
       249         -1.03621830        0.000049
       250         -1.03621830        0.000049
       251         -1.03621830        0.000049
       252         -1.03621830        0.000049
       253         -1.03621830        0.000049
       254         -1.03621830        0.000049
       255         -1.03621830        0.000049
       256         -1.03621830        0.000049
       257         -1.03621830        0.000049
       258         -1.03621830        0.000049
       259         -1.03621830        0.000049
       260         -1.03621830        0.000049
       261         -1.03621830        0.000049
       262         -1.03621830        0.000039
       263         -1.03621830        0.000039
       264         -1.03621830        0.000039
       265         -1.03621830        0.000039
       266         -1.03621830        0.000039
       267         -1.03621830        0.000031
       268         -1.03621830        0.000025
       269         -1.03621830        0.000025
       270         -1.03621830        0.000025
       271         -1.03621830        0.000025
       272         -1.03621830        0.000025
       273         -1.03621830        0.000025
       274         -1.03621830        0.000025
       275         -1.03621830        0.000025
       276         -1.03621830        0.000025
       277         -1.03621830        0.000025
       278         -1.03621830        0.000025
       279         -1.03621830        0.000025
       280         -1.03621830        0.000025
       281         -1.03621830        0.000025
       282         -1.03621830        0.000025
       283         -1.03621830        0.000025
       284         -1.03621830        0.000025
       285         -1.03621830        0.000025
       286         -1.03621830        0.000025
       287         -1.03621830        0.000025
       288         -1.03621830        0.000025
       289         -1.03621830        0.000025
       290         -1.03621830        0.000025
       291         -1.03621830        0.000025
       292         -1.03621830        0.000025
       293         -1.03621830        0.000025
       294         -1.03621830        0.000025
       295         -1.03621830        0.000020
       296         -1.03621830        0.000020
       297         -1.03621830        0.000020
       298         -1.03621830        0.000020
       299         -1.03621830        0.000020
       300         -1.03621830        0.000020
       301         -1.03621830        0.000020
       302         -1.03621830        0.000020
       303         -1.03621830        0.000020
       304         -1.03621830        0.000020
       305         -1.03621830        0.000020
       306         -1.03621830        0.000020
       307         -1.03621830        0.000020
       308         -1.03621830        0.000020
       309         -1.03621830        0.000020
       310         -1.03621830        0.000020
       311         -1.03621830        0.000020
       312         -1.03621830        0.000020
       313         -1.03621830        0.000020
       314         -1.03621830        0.000020
       315         -1.03621830        0.000020
       316         -1.03621830        0.000016
       317         -1.03621830        0.000016
       318         -1.03621830        0.000016
       319         -1.03621830        0.000016
       320         -1.03621830        0.000016
       321         -1.03621830        0.000016
       322         -1.03621830        0.000016
       323         -1.03621830        0.000016
       324         -1.03621830        0.000016
       325         -1.03621830        0.000012
       326         -1.03621830        0.000008
       327         -1.03621830        0.000008
       328         -1.03621830        0.000008
       329         -1.03621830        0.000008
       330         -1.03621830        0.000008
       331         -1.03621830        0.000008
       332         -1.03621830        0.000008
       333         -1.03621830        0.000008
       334         -1.03621830        0.000008
       335         -1.03621830        0.000008
       336         -1.03621830        0.000008
       337         -1.03621830        0.000008
       338         -1.03621830        0.000008
       339         -1.03621830        0.000008
       340         -1.03621830        0.000008
       341         -1.03621830        0.000008
       342         -1.03621830        0.000006
       343         -1.03621830        0.000006
       344         -1.03621830        0.000006
       345         -1.03621830        0.000006
       346         -1.03621830        0.000006
       347         -1.03621830        0.000006
       348         -1.03621830        0.000006
       349         -1.03621830        0.000006
       350         -1.03621830        0.000006
       351         -1.03621830        0.000006
       352         -1.03621830        0.000006
       353         -1.03621830        0.000006
       354         -1.03621830        0.000006
       355         -1.03621830        0.000006
       356         -1.03621830        0.000006
       357         -1.03621830        0.000006
       358         -1.03621830        0.000006
       359         -1.03621830        0.000006
       360         -1.03621830        0.000006
       361         -1.03621830        0.000006
       362         -1.03621830        0.000006
       363         -1.03621830        0.000004
       364         -1.03621830        0.000004
       365         -1.03621830        0.000004
       366         -1.03621830        0.000004
       367         -1.03621830        0.000004
       368         -1.03621830        0.000004
       369         -1.03621830        0.000004
       370         -1.03621830        0.000004
       371         -1.03621830        0.000004
       372         -1.03621830        0.000004
       373         -1.03621830        0.000004
       374         -1.03621830        0.000004
       375         -1.03621830        0.000004
       376         -1.03621830        0.000004
       377         -1.03621830        0.000004
       378         -1.03621830        0.000004
       379         -1.03621830        0.000003
       380         -1.03621830        0.000003
       381         -1.03621830        0.000003
       382         -1.03621830        0.000003
       383         -1.03621830        0.000003
       384         -1.03621830        0.000003
       385         -1.03621830        0.000003
       386         -1.03621830        0.000003
       387         -1.03621830        0.000003
       388         -1.03621830        0.000002
       389         -1.03621830        0.000002
       390         -1.03621830        0.000002
       391         -1.03621830        0.000002
       392         -1.03621830        0.000002
       393         -1.03621830        0.000002
       394         -1.03621830        0.000002
       395         -1.03621830        0.000002
       396         -1.03621830        0.000002
       397         -1.03621830        0.000002
       398         -1.03621830        0.000002
       399         -1.03621830        0.000002
       400         -1.03621830        0.000002
       401         -1.03621830        0.000002
       402         -1.03621830        0.000002
       403         -1.03621830        0.000002
       404         -1.03621830        0.000002
       405         -1.03621830        0.000002
       406         -1.03621830        0.000002
       407         -1.03621830        0.000002
       408         -1.03621830        0.000002
       409         -1.03621830        0.000002
       410         -1.03621830        0.000002
       411         -1.03621830        0.000002
       412         -1.03621830        0.000002
       413         -1.03621830        0.000002
       414         -1.03621830        0.000002
       415         -1.03621830        0.000002
       416         -1.03621830        0.000002
       417         -1.03621830        0.000002
       418         -1.03621830        0.000002
       419         -1.03621830        0.000002
       420         -1.03621830        0.000002
       421         -1.03621830        0.000002
       422         -1.03621830        0.000002
       423         -1.03621830        0.000002
       424         -1.03621830        0.000002
       425         -1.03621830        0.000001
       426         -1.03621830        0.000001
       427         -1.03621830        0.000001
       428         -1.03621830        0.000001
       429         -1.03621830        0.000001
       430         -1.03621830        0.000001
       431         -1.03621830        0.000001
       432         -1.03621830        0.000001
       433         -1.03621830        0.000001
       434         -1.03621830        0.000001

 Reached Convergence

 WFN1                     :
 --------------------------
 Total WFN1 energy  =          -1.0362182977
 1-Electron energy  =          -1.7248880974
 2-Electron energy  =           0.4705256200
 Correlation energy =          -0.1280332597
 DFT XC energy      =           0.0000000000
 Entropy energy     =           0.0000000000
 Nuclear energy     =           0.3461774395

 conventional Hartree-Fock:
 --------------------------
 Total SCF energy  =          -0.9655097533
 2-Electron energy =           0.5412341644

                WFN1 Final Natural orbital energies and occupations
                ---------------------------------------------------

              Alpha       Beta            Alpha       Beta  
            --------    --------        --------    --------
       1      0.0000      0.0000          0.8717      0.8717
       2      0.0000      0.0000          0.1092      0.1092
       3      0.0000      0.0000          0.0101      0.0101
       4      0.0000      0.0000          0.0091      0.0091

             WFN1 Final Correlation function energies and occupations
             --------------------------------------------------------

              Alpha       Beta            Alpha       Beta  
            --------    --------        --------    --------
       1      0.0000      0.0000          1.0000      1.0000
       2      0.0000      0.0000          0.0000      0.0000
       3      0.0000      0.0000          0.0000      0.0000
       4      0.0000      0.0000          0.0000      0.0000

                WFN1 Final alpha-alpha 2-matrix occupation numbers
                --------------------------------------------------


 global array: g_momo1[1:4,1:4],  handle: -990 

            1           2           3           4  
       ----------- ----------- ----------- -----------
   1      -0.00000     0.00000     0.00000     0.00000
   2      -0.00000     0.00000     0.00000    -0.00000
   3      -0.00000     0.00000     0.00000     0.00000
   4       0.00000     0.00000     0.00000     0.00000

                 WFN1 Final beta-beta 2-matrix occupation numbers
                 ------------------------------------------------


 global array: g_momo2[1:4,1:4],  handle: -989 

            1           2           3           4  
       ----------- ----------- ----------- -----------
   1      -0.00000     0.00000     0.00000     0.00000
   2      -0.00000     0.00000     0.00000    -0.00000
   3      -0.00000     0.00000     0.00000     0.00000
   4       0.00000     0.00000     0.00000     0.00000

                  WFN1 Final alpha Correlation Function Analysis
                  ----------------------------------------------


 global array: Ca[1:4,1:4],  handle: -981 

                     1                       2                       3                       4  
       ----------------------- ----------------------- ----------------------- -----------------------
   1       0.34909,    0.86590    -0.02538,   -0.32971    -0.00444,    0.02540     0.03137,    0.13170
   2       0.17938,   -0.27754     0.71136,   -0.61701    -0.02711,   -0.01636    -0.02160,   -0.05090
   3       0.04588,   -0.08919     0.02861,    0.05222    -0.38584,    0.68547    -0.29962,    0.52714
   4       0.08402,    0.04498    -0.01766,    0.00748     0.53963,    0.29731    -0.68333,   -0.37951

                   WFN1 Final beta Correlation Function Analysis
                   ---------------------------------------------


 global array: Cb[1:4,1:4],  handle: -980 

                     1                       2                       3                       4  
       ----------------------- ----------------------- ----------------------- -----------------------
   1       0.34909,    0.86590    -0.02538,   -0.32971    -0.00444,    0.02540     0.03137,    0.13170
   2       0.17938,   -0.27754     0.71136,   -0.61701    -0.02711,   -0.01636    -0.02160,   -0.05090
   3       0.04588,   -0.08919     0.02861,    0.05222    -0.38584,    0.68547    -0.29962,    0.52714
   4       0.08402,    0.04498    -0.01766,    0.00748     0.53963,    0.29731    -0.68333,   -0.37951

                     WFN1 Final Alpha Natural Orbital Analysis
                     -----------------------------------------

 Vector    1  Occ=8.716530D-01  E= 0.000000D+00
              MO Center=  0.0D+00,  0.0D+00,  6.2D-07, r^2= 1.3D+00
   Bfn.  Coefficient  Atom+Function         Bfn.  Coefficient  Atom+Function  
  ----- ------------  ---------------      ----- ------------  ---------------
     2      0.413404  1 H  s                  4      0.413404  2 H  s          
     1      0.245792  1 H  s                  3      0.245792  2 H  s          

 Vector    2  Occ=1.092050D-01  E= 0.000000D+00
              MO Center=  0.0D+00,  0.0D+00, -5.5D-07, r^2= 1.8D+00
   Bfn.  Coefficient  Atom+Function         Bfn.  Coefficient  Atom+Function  
  ----- ------------  ---------------      ----- ------------  ---------------
     2     -0.685826  1 H  s                  4      0.685827  2 H  s          
     1     -0.303194  1 H  s                  3      0.303192  2 H  s          

 Vector    3  Occ=1.005927D-02  E= 0.000000D+00
              MO Center=  0.0D+00,  0.0D+00, -4.4D-06, r^2= 2.2D+00
   Bfn.  Coefficient  Atom+Function         Bfn.  Coefficient  Atom+Function  
  ----- ------------  ---------------      ----- ------------  ---------------
     2      1.125560  1 H  s                  4     -1.125556  2 H  s          
     1     -0.896101  1 H  s                  3      0.896097  2 H  s          

 Vector    4  Occ=9.082782D-03  E= 0.000000D+00
              MO Center=  0.0D+00,  0.0D+00,  4.3D-06, r^2= 1.7D+00
   Bfn.  Coefficient  Atom+Function         Bfn.  Coefficient  Atom+Function  
  ----- ------------  ---------------      ----- ------------  ---------------
     1     -0.931853  1 H  s                  3     -0.931858  2 H  s          
     2      0.688741  1 H  s                  4      0.688745  2 H  s          


                     WFN1 Final Beta Natural Orbital Analysis
                     ----------------------------------------

 Vector    1  Occ=8.716530D-01  E= 0.000000D+00
              MO Center=  0.0D+00,  0.0D+00,  6.2D-07, r^2= 1.3D+00
   Bfn.  Coefficient  Atom+Function         Bfn.  Coefficient  Atom+Function  
  ----- ------------  ---------------      ----- ------------  ---------------
     2      0.413404  1 H  s                  4      0.413404  2 H  s          
     1      0.245792  1 H  s                  3      0.245792  2 H  s          

 Vector    2  Occ=1.092050D-01  E= 0.000000D+00
              MO Center=  0.0D+00,  0.0D+00, -5.5D-07, r^2= 1.8D+00
   Bfn.  Coefficient  Atom+Function         Bfn.  Coefficient  Atom+Function  
  ----- ------------  ---------------      ----- ------------  ---------------
     2     -0.685826  1 H  s                  4      0.685827  2 H  s          
     1     -0.303194  1 H  s                  3      0.303192  2 H  s          

 Vector    3  Occ=1.005927D-02  E= 0.000000D+00
              MO Center=  0.0D+00,  0.0D+00, -4.4D-06, r^2= 2.2D+00
   Bfn.  Coefficient  Atom+Function         Bfn.  Coefficient  Atom+Function  
  ----- ------------  ---------------      ----- ------------  ---------------
     2      1.125560  1 H  s                  4     -1.125556  2 H  s          
     1     -0.896101  1 H  s                  3      0.896097  2 H  s          

 Vector    4  Occ=9.082782D-03  E= 0.000000D+00
              MO Center=  0.0D+00,  0.0D+00,  4.3D-06, r^2= 1.7D+00
   Bfn.  Coefficient  Atom+Function         Bfn.  Coefficient  Atom+Function  
  ----- ------------  ---------------      ----- ------------  ---------------
     1     -0.931853  1 H  s                  3     -0.931858  2 H  s          
     2      0.688741  1 H  s                  4      0.688745  2 H  s          


 Task  times  cpu:       13.6s     wall:       18.2s
 Summary of allocated global arrays
-----------------------------------
  No active global arrays



                         GA Statistics for process    0
                         ------------------------------

       create   destroy   get      put      acc     scatter   gather  read&inc
calls:   44       44     1.01e+07 2.10e+04 2.76e+04    0        0       11     
number of processes/call 1.00e+00 1.00e+00 1.00e+00 0.00e+00 0.00e+00
bytes total:             1.29e+09 3.53e+06 4.40e+06 0.00e+00 0.00e+00 8.80e+01
bytes remote:            0.00e+00 0.00e+00 0.00e+00 0.00e+00 0.00e+00 0.00e+00
Max memory consumed for GA by this process: 10624 bytes
MA_summarize_allocated_blocks: starting scan ...
MA_summarize_allocated_blocks: scan completed: 0 heap blocks, 0 stack blocks
MA usage statistics:

	allocation statistics:
					      heap	     stack
					      ----	     -----
	current number of blocks	         0	         0
	maximum number of blocks	        19	        17
	current total bytes		         0	         0
	maximum total bytes		   3204328	  22508616
	maximum total K-bytes		      3205	     22509
	maximum total M-bytes		         4	        23


                                NWChem Input Module
                                -------------------





                                     CITATION
                                     --------
                Please cite the following reference when publishing
                           results obtained with NWChem:

                 M. Valiev, E.J. Bylaska, N. Govind, K. Kowalski,
              T.P. Straatsma, H.J.J. van Dam, D. Wang, J. Nieplocha,
                        E. Apra, T.L. Windus, W.A. de Jong
                 "NWChem: a comprehensive and scalable open-source
                  solution for large scale molecular simulations"
                      Comput. Phys. Commun. 181, 1477 (2010)
                           doi:10.1016/j.cpc.2010.04.018

                                      AUTHORS
                                      -------
          E. Apra, E. J. Bylaska, W. A. de Jong, N. Govind, K. Kowalski,
       T. P. Straatsma, M. Valiev, H. J. J. van Dam, D. Wang, T. L. Windus,
        J. Hammond, J. Autschbach, K. Bhaskaran-Nair, J. Brabec, K. Lopata,
    S. A. Fischer, S. Krishnamoorthy, M. Jacquelin, W. Ma, M. Klemm, O. Villa,
      Y. Chen, V. Anisimov, F. Aquino, S. Hirata, M. T. Hackler, V. Konjkov,
      T. Risthaus, M. Malagoli, A. Marenich, A. Otero-de-la-Roza, J. Mullin,
        P. Nichols, R. Peverati, J. Pittner, Y. Zhao, P.-D. Fan, A. Fonari,
       M. Williamson, R. J. Harrison, J. R. Rehr, M. Dupuis, D. Silverstein,
    D. M. A. Smith, J. Nieplocha, V. Tipparaju, M. Krishnan, B. E. Van Kuiken,
        A. Vazquez-Mayagoitia, L. Jensen, M. Swart, Q. Wu, T. Van Voorhis,
     A. A. Auer, M. Nooijen, L. D. Crosby, E. Brown, G. Cisneros, G. I. Fann,
   H. Fruchtl, J. Garza, K. Hirao, R. A. Kendall, J. A. Nichols, K. Tsemekhman,
    K. Wolinski, J. Anchell, D. E. Bernholdt, P. Borowski, T. Clark, D. Clerc,
   H. Dachsel, M. J. O. Deegan, K. Dyall, D. Elwood, E. Glendening, M. Gutowski,
   A. C. Hess, J. Jaffe, B. G. Johnson, J. Ju, R. Kobayashi, R. Kutteh, Z. Lin,
   R. Littlefield, X. Long, B. Meng, T. Nakajima, S. Niu, L. Pollack, M. Rosing,
   K. Glaesemann, G. Sandrone, M. Stave, H. Taylor, G. Thomas, J. H. van Lenthe,
                               A. T. Wong, Z. Zhang.

 Total times  cpu:       13.6s     wall:       18.3s
