 argument  1 = input-wf.nw



============================== echo of input deck ==============================
echo
start wfn1_dat
geometry units au noautoz
  H 0 0 -.79434600000000000000
  H 0 0  .79434600000000000000
  symmetry cs
end
basis
  H library 6-31g
end
set wfn1:input_vectors "atomic"
set wfn1:solver "monte-carlo"
set wfn1:print_error F
set wfn1:t_initial 0.1
#set wfn1:corr_expr "wfn1_mx"
set wfn1:corr_expr "wfn1c"
set wfn1:t_bath 0.0
set wfn1:maxit  20000
task wfn1 energy
================================================================================


                                         
                                         


              Northwest Computational Chemistry Package (NWChem) 6.8
              ------------------------------------------------------


                    Environmental Molecular Sciences Laboratory
                       Pacific Northwest National Laboratory
                                Richland, WA 99352

                              Copyright (c) 1994-2015
                       Pacific Northwest National Laboratory
                            Battelle Memorial Institute

             NWChem is an open-source computational chemistry package
                        distributed under the terms of the
                      Educational Community License (ECL) 2.0
             A copy of the license is included with this distribution
                              in the LICENSE.TXT file

                                  ACKNOWLEDGMENT
                                  --------------

            This software and its documentation were developed at the
            EMSL at Pacific Northwest National Laboratory, a multiprogram
            national laboratory, operated for the U.S. Department of Energy
            by Battelle under Contract Number DE-AC05-76RL01830. Support
            for this work was provided by the Department of Energy Office
            of Biological and Environmental Research, Office of Basic
            Energy Sciences, and the Office of Advanced Scientific Computing.


           Job information
           ---------------

    hostname        = erato
    program         = ../../../bin/LINUX64/nwchem
    date            = Mon Mar  1 01:04:43 2021

    compiled        = Sun_Feb_28_18:02:42_2021
    source          = /home/hvandam/nwchem-1-wfn1
    nwchem branch   = Development
    nwchem revision = nwchem_on_git-124-gad72d19fff205e319ffbbf2bca37a04ded6ad57b
    ga revision     = nwchem_on_git-124-gad72d19
    use scalapack   = F
    input           = input-wf.nw
    prefix          = wfn1_dat.
    data base       = ./wfn1_dat.db
    status          = startup
    nproc           =        1
    time left       =     -1s



           Memory information
           ------------------

    heap     =   13107200 doubles =    100.0 Mbytes
    stack    =   13107197 doubles =    100.0 Mbytes
    global   =   26214400 doubles =    200.0 Mbytes (distinct from heap & stack)
    total    =   52428797 doubles =    400.0 Mbytes
    verify   = yes
    hardfail = no 


           Directory information
           ---------------------

  0 permanent = .
  0 scratch   = .




                                NWChem Input Module
                                -------------------


 Turning off AUTOSYM since
 SYMMETRY directive was detected!



                             Geometry "geometry" -> ""
                             -------------------------

 Output coordinates in a.u. (scale by  1.000000000 to convert to a.u.)

  No.       Tag          Charge          X              Y              Z
 ---- ---------------- ---------- -------------- -------------- --------------
    1 H                    1.0000     0.00000000     0.00000000    -0.79434600
    2 H                    1.0000     0.00000000     0.00000000     0.79434600

      Atomic Mass 
      ----------- 

      H                  1.007825


 Effective nuclear repulsion energy (a.u.)       0.6294486282

            Nuclear Dipole moment (a.u.) 
            ----------------------------
        X                 Y               Z
 ---------------- ---------------- ----------------
     0.0000000000     0.0000000000     0.0000000000

      Symmetry information
      --------------------

 Group name             Cs        
 Group number              2
 Group order               2
 No. of unique centers     1

      Symmetry unique atoms

     1


            XYZ format geometry
            -------------------
     2
 geometry
 H                     0.00000000     0.00000000    -0.42034983
 H                     0.00000000     0.00000000     0.42034983

                      Basis "ao basis" -> "" (cartesian)
                      -----
  H (Hydrogen)
  ------------
            Exponent  Coefficients 
       -------------- ---------------------------------------------------------
  1 S  1.87311370E+01  0.033495
  1 S  2.82539370E+00  0.234727
  1 S  6.40121700E-01  0.813757

  2 S  1.61277800E-01  1.000000



 Summary of "ao basis" -> "" (cartesian)
 ------------------------------------------------------------------------------
       Tag                 Description            Shells   Functions and Types
 ---------------- ------------------------------  ------  ---------------------
 H                           6-31g                   2        2   2s



                                NWChem WFN1 Module
                                ------------------



          No. of electrons :     2
           Alpha electrons :     1
            Beta electrons :     1
          Charge           :     0
          Spin multiplicity:     1

 HvD: wfn1_inpdft
 HvD: nquad_task =                     1
 HvD: iangquad   =                     0
 HvD: gridtype   = user      
 HvD: leb        =  T
 HvD: radgrid    = murakn    
 HvD: trunc_neigh=  T
 HvD: lssw       =  T
 HvD: whichssw   = erf1    
 HvD: mxnrad     =                     0
 HvD: mxnang     =                     0
 HVD: wfn1: movecs_in  = atomic                                                                                                                                                                                                                                                          
 HVD: wfn1: movecs_out = ./wfn1_dat.movecs                                                                                                                                                                                                                                               

      Superposition of Atomic Density Guess
      -------------------------------------

 Sum of atomic energies:          -0.99646508

      Non-variational initial energy
      ------------------------------

 Total energy =      -0.835229
 1-e energy   =      -2.122564
 2-e energy   =       0.657886
 HOMO         =      -0.533877
 LUMO         =       0.146535

 iteration              energy           error
 ---------              ------           -----
         0         -1.12077331        0.080000
         1         -1.12209270        0.080000
         2         -1.12222892        0.080000
         3         -1.12322740        0.080000
         4         -1.12364273        0.080000
         5         -1.12382982        0.080000
         6         -1.12395726        0.080000
         7         -1.12459183        0.080000
         8         -1.12525559        0.080000
         9         -1.12531346        0.080000
        10         -1.12538548        0.080000
        11         -1.12540509        0.080000
        12         -1.12552041        0.080000
        13         -1.12571765        0.080000
        14         -1.12572529        0.080000
        15         -1.12573694        0.080000
        16         -1.12577469        0.063496
        17         -1.12579084        0.040000
        18         -1.12580162        0.040000
        19         -1.12580885        0.040000
        20         -1.12580955        0.040000
        21         -1.12583394        0.040000
        22         -1.12584328        0.040000
        23         -1.12585111        0.040000
        24         -1.12585453        0.040000
        25         -1.12585600        0.040000
        26         -1.12585877        0.031748
        27         -1.12586816        0.025198
        28         -1.12587155        0.025198
        29         -1.12587263        0.025198
        30         -1.12587758        0.025198
        31         -1.12588164        0.025198
        32         -1.12588321        0.025198
        33         -1.12588415        0.025198
        34         -1.12588982        0.025198
        35         -1.12589186        0.015874
        36         -1.12589600        0.015874
        37         -1.12590389        0.015874
        38         -1.12590531        0.015874
        39         -1.12590673        0.015874
        40         -1.12591072        0.015874
        41         -1.12591270        0.015874
        42         -1.12591579        0.012599
        43         -1.12591586        0.012599
        44         -1.12592186        0.012599
        45         -1.12592627        0.012599
        46         -1.12592657        0.012599
        47         -1.12593252        0.012599
        48         -1.12593918        0.012599
        49         -1.12594018        0.012599
        50         -1.12594553        0.012599
        51         -1.12595035        0.012599
        52         -1.12595113        0.012599
        53         -1.12595252        0.012599
        54         -1.12595481        0.012599
        55         -1.12596059        0.012599
        56         -1.12596301        0.012599
        57         -1.12596713        0.012599
        58         -1.12597428        0.012599
        59         -1.12597524        0.012599
        60         -1.12597654        0.012599
        61         -1.12598227        0.012599
        62         -1.12598323        0.012599
        63         -1.12598643        0.012599
        64         -1.12599227        0.012599
        65         -1.12599426        0.012599
        66         -1.12599892        0.012599
        67         -1.12600409        0.012599
        68         -1.12600658        0.012599
        69         -1.12600723        0.012599
        70         -1.12601129        0.012599
        71         -1.12601385        0.012599
        72         -1.12601504        0.012599
        73         -1.12602200        0.012599
        74         -1.12602587        0.012599
        75         -1.12602728        0.012599
        76         -1.12602783        0.012599
        77         -1.12603102        0.012599
        78         -1.12603456        0.012599
        79         -1.12603839        0.012599
        80         -1.12603870        0.012599
        81         -1.12603963        0.012599
        82         -1.12604311        0.012599
        83         -1.12604368        0.012599
        84         -1.12605157        0.012599
        85         -1.12605244        0.012599
        86         -1.12605453        0.012599
        87         -1.12605830        0.012599
        88         -1.12605841        0.012599
        89         -1.12606332        0.012599
        90         -1.12607403        0.012599
        91         -1.12607829        0.012599
        92         -1.12608215        0.012599
        93         -1.12608283        0.012599
        94         -1.12608299        0.012599
        95         -1.12608362        0.012599
        96         -1.12608514        0.012599
        97         -1.12608745        0.012599
        98         -1.12608783        0.012599
        99         -1.12609403        0.012599
       100         -1.12610783        0.012599
       101         -1.12610801        0.012599
       102         -1.12610803        0.012599
       103         -1.12610961        0.012599
       104         -1.12611524        0.012599
       105         -1.12611711        0.012599
       106         -1.12612100        0.012599
       107         -1.12612164        0.012599
       108         -1.12612570        0.012599
       109         -1.12612859        0.012599
       110         -1.12613282        0.012599
       111         -1.12613418        0.012599
       112         -1.12614423        0.012599
       113         -1.12614923        0.012599
       114         -1.12615141        0.012599
       115         -1.12615343        0.012599
       116         -1.12615643        0.012599
       117         -1.12615966        0.012599
       118         -1.12616739        0.012599
       119         -1.12616794        0.012599
       120         -1.12616897        0.012599
       121         -1.12617332        0.012599
       122         -1.12617482        0.012599
       123         -1.12617802        0.012599
       124         -1.12617958        0.012599
       125         -1.12618825        0.012599
       126         -1.12619160        0.012599
       127         -1.12619381        0.012599
       128         -1.12619556        0.012599
       129         -1.12620720        0.012599
       130         -1.12620830        0.012599
       131         -1.12620931        0.012599
       132         -1.12621648        0.012599
       133         -1.12621710        0.012599
       134         -1.12621942        0.012599
       135         -1.12622056        0.012599
       136         -1.12622650        0.012599
       137         -1.12622926        0.012599
       138         -1.12623565        0.012599
       139         -1.12623677        0.012599
       140         -1.12624007        0.012599
       141         -1.12624291        0.012599
       142         -1.12624506        0.012599
       143         -1.12624740        0.012599
       144         -1.12625241        0.012599
       145         -1.12625580        0.012599
       146         -1.12626247        0.012599
       147         -1.12626505        0.012599
       148         -1.12626907        0.012599
       149         -1.12627304        0.012599
       150         -1.12627486        0.012599
       151         -1.12628028        0.012599
       152         -1.12628877        0.012599
       153         -1.12628919        0.012599
       154         -1.12629013        0.012599
       155         -1.12629053        0.012599
       156         -1.12629445        0.012599
       157         -1.12629552        0.012599
       158         -1.12630060        0.012599
       159         -1.12630164        0.012599
       160         -1.12630299        0.012599
       161         -1.12630593        0.012599
       162         -1.12630994        0.012599
       163         -1.12631051        0.012599
       164         -1.12632075        0.012599
       165         -1.12632224        0.012599
       166         -1.12632458        0.012599
       167         -1.12633272        0.012599
       168         -1.12633554        0.012599
       169         -1.12633703        0.012599
       170         -1.12633814        0.012599
       171         -1.12634203        0.012599
       172         -1.12634365        0.012599
       173         -1.12634547        0.012599
       174         -1.12635091        0.012599
       175         -1.12635508        0.012599
       176         -1.12636020        0.012599
       177         -1.12636148        0.012599
       178         -1.12636221        0.012599
       179         -1.12636567        0.012599
       180         -1.12637281        0.012599
       181         -1.12637806        0.012599
       182         -1.12637976        0.012599
       183         -1.12638043        0.012599
       184         -1.12638402        0.012599
       185         -1.12638597        0.012599
       186         -1.12638703        0.012599
       187         -1.12639648        0.012599
       188         -1.12639653        0.012599
       189         -1.12640133        0.012599
       190         -1.12640478        0.012599
       191         -1.12640591        0.012599
       192         -1.12641024        0.012599
       193         -1.12641522        0.012599
       194         -1.12641936        0.012599
       195         -1.12642021        0.012599
       196         -1.12642507        0.012599
       197         -1.12642753        0.012599
       198         -1.12643402        0.012599
       199         -1.12643446        0.012599
       200         -1.12643832        0.012599
       201         -1.12644731        0.012599
       202         -1.12644982        0.012599
       203         -1.12644984        0.012599
       204         -1.12645480        0.012599
       205         -1.12645852        0.012599
       206         -1.12646411        0.012599
       207         -1.12646660        0.012599
       208         -1.12646891        0.012599
       209         -1.12647761        0.012599
       210         -1.12647957        0.012599
       211         -1.12648265        0.012599
       212         -1.12648415        0.012599
       213         -1.12648497        0.012599
       214         -1.12648728        0.012599
       215         -1.12648809        0.012599
       216         -1.12649141        0.012599
       217         -1.12649383        0.012599
       218         -1.12649576        0.012599
       219         -1.12649699        0.012599
       220         -1.12649868        0.012599
       221         -1.12650123        0.012599
       222         -1.12650424        0.012599
       223         -1.12651071        0.012599
       224         -1.12651782        0.012599
       225         -1.12652444        0.012599
       226         -1.12652751        0.012599
       227         -1.12653468        0.012599
       228         -1.12654092        0.012599
       229         -1.12654281        0.012599
       230         -1.12654545        0.012599
       231         -1.12655387        0.012599
       232         -1.12655748        0.012599
       233         -1.12656321        0.012599
       234         -1.12656546        0.012599
       235         -1.12656614        0.012599
       236         -1.12657576        0.012599
       237         -1.12657801        0.012599
       238         -1.12658219        0.012599
       239         -1.12658682        0.012599
       240         -1.12658708        0.012599
       241         -1.12659264        0.012599
       242         -1.12659433        0.012599
       243         -1.12659813        0.012599
       244         -1.12660440        0.012599
       245         -1.12660579        0.012599
       246         -1.12661039        0.012599
       247         -1.12661087        0.012599
       248         -1.12661353        0.012599
       249         -1.12661540        0.012599
       250         -1.12661679        0.012599
       251         -1.12661770        0.012599
       252         -1.12662022        0.012599
       253         -1.12662148        0.012599
       254         -1.12662173        0.012599
       255         -1.12662757        0.012599
       256         -1.12662947        0.012599
       257         -1.12663652        0.012599
       258         -1.12663751        0.012599
       259         -1.12663760        0.012599
       260         -1.12664589        0.012599
       261         -1.12664914        0.012599
       262         -1.12665024        0.012599
       263         -1.12665137        0.012599
       264         -1.12665344        0.012599
       265         -1.12665367        0.012599
       266         -1.12665622        0.012599
       267         -1.12666402        0.012599
       268         -1.12666600        0.012599
       269         -1.12666965        0.012599
       270         -1.12667114        0.012599
       271         -1.12667413        0.012599
       272         -1.12667735        0.012599
       273         -1.12668318        0.012599
       274         -1.12668432        0.012599
       275         -1.12668683        0.012599
       276         -1.12668793        0.012599
       277         -1.12669810        0.012599
       278         -1.12670182        0.012599
       279         -1.12670189        0.012599
       280         -1.12670731        0.012599
       281         -1.12670916        0.012599
       282         -1.12671836        0.012599
       283         -1.12671970        0.012599
       284         -1.12672568        0.012599
       285         -1.12673343        0.012599
       286         -1.12673764        0.012599
       287         -1.12673897        0.012599
       288         -1.12674331        0.012599
       289         -1.12674705        0.012599
       290         -1.12674721        0.012599
       291         -1.12675263        0.012599
       292         -1.12676097        0.012599
       293         -1.12676365        0.012599
       294         -1.12676558        0.012599
       295         -1.12676782        0.012599
       296         -1.12677146        0.012599
       297         -1.12677759        0.012599
       298         -1.12677883        0.012599
       299         -1.12678288        0.012599
       300         -1.12678425        0.012599
       301         -1.12678790        0.012599
       302         -1.12679988        0.012599
       303         -1.12680428        0.012599
       304         -1.12680676        0.012599
       305         -1.12681236        0.012599
       306         -1.12681690        0.012599
       307         -1.12681777        0.012599
       308         -1.12682208        0.012599
       309         -1.12683058        0.012599
       310         -1.12683159        0.012599
       311         -1.12683606        0.012599
       312         -1.12683732        0.012599
       313         -1.12683979        0.012599
       314         -1.12684916        0.012599
       315         -1.12685457        0.012599
       316         -1.12686067        0.012599
       317         -1.12686701        0.012599
       318         -1.12686966        0.012599
       319         -1.12686987        0.012599
       320         -1.12687237        0.012599
       321         -1.12687290        0.012599
       322         -1.12687792        0.012599
       323         -1.12687820        0.012599
       324         -1.12688491        0.012599
       325         -1.12688944        0.012599
       326         -1.12689306        0.012599
       327         -1.12689616        0.012599
       328         -1.12689626        0.012599
       329         -1.12690391        0.012599
       330         -1.12691129        0.012599
       331         -1.12691132        0.012599
       332         -1.12691387        0.012599
       333         -1.12691736        0.012599
       334         -1.12691938        0.012599
       335         -1.12692445        0.012599
       336         -1.12693312        0.012599
       337         -1.12693363        0.012599
       338         -1.12693715        0.012599
       339         -1.12694713        0.012599
       340         -1.12696213        0.012599
       341         -1.12696332        0.012599
       342         -1.12696441        0.012599
       343         -1.12696598        0.012599
       344         -1.12697099        0.012599
       345         -1.12697681        0.012599
       346         -1.12697836        0.012599
       347         -1.12697908        0.012599
       348         -1.12698293        0.012599
       349         -1.12699073        0.012599
       350         -1.12699334        0.012599
       351         -1.12699600        0.012599
       352         -1.12699864        0.012599
       353         -1.12700199        0.012599
       354         -1.12700279        0.012599
       355         -1.12700918        0.012599
       356         -1.12701300        0.012599
       357         -1.12701704        0.012599
       358         -1.12702633        0.012599
       359         -1.12702714        0.012599
       360         -1.12703012        0.012599
       361         -1.12703613        0.012599
       362         -1.12703696        0.012599
       363         -1.12704212        0.012599
       364         -1.12704365        0.012599
       365         -1.12704527        0.012599
       366         -1.12704729        0.012599
       367         -1.12705063        0.012599
       368         -1.12705069        0.012599
       369         -1.12705169        0.012599
       370         -1.12705183        0.012599
       371         -1.12705448        0.012599
       372         -1.12705481        0.012599
       373         -1.12706064        0.012599
       374         -1.12706115        0.012599
       375         -1.12706134        0.012599
       376         -1.12706172        0.012599
       377         -1.12706354        0.012599
       378         -1.12707160        0.012599
       379         -1.12708083        0.012599
       380         -1.12708430        0.012599
       381         -1.12708582        0.012599
       382         -1.12708603        0.012599
       383         -1.12709596        0.012599
       384         -1.12709648        0.012599
       385         -1.12710207        0.012599
       386         -1.12710769        0.012599
       387         -1.12710959        0.010000
       388         -1.12710967        0.010000
       389         -1.12711044        0.010000
       390         -1.12711452        0.010000
       391         -1.12711560        0.010000
       392         -1.12711886        0.010000
       393         -1.12711929        0.010000
       394         -1.12712436        0.010000
       395         -1.12712749        0.010000
       396         -1.12712810        0.010000
       397         -1.12712978        0.010000
       398         -1.12713472        0.010000
       399         -1.12713618        0.010000
       400         -1.12713954        0.010000
       401         -1.12714496        0.010000
       402         -1.12715139        0.010000
       403         -1.12715152        0.010000
       404         -1.12715182        0.010000
       405         -1.12716277        0.010000
       406         -1.12716283        0.010000
       407         -1.12716518        0.010000
       408         -1.12716807        0.010000
       409         -1.12716850        0.010000
       410         -1.12716938        0.010000
       411         -1.12717043        0.010000
       412         -1.12717376        0.010000
       413         -1.12718061        0.010000
       414         -1.12718789        0.010000
       415         -1.12719558        0.010000
       416         -1.12719907        0.010000
       417         -1.12720130        0.010000
       418         -1.12720533        0.010000
       419         -1.12720694        0.010000
       420         -1.12720979        0.010000
       421         -1.12721282        0.010000
       422         -1.12721555        0.010000
       423         -1.12721844        0.010000
       424         -1.12722548        0.010000
       425         -1.12722956        0.010000
       426         -1.12723028        0.010000
       427         -1.12723105        0.010000
       428         -1.12723232        0.010000
       429         -1.12723744        0.010000
       430         -1.12724155        0.010000
       431         -1.12724711        0.010000
       432         -1.12724711        0.010000
       433         -1.12724796        0.010000
       434         -1.12724832        0.010000
       435         -1.12725324        0.010000
       436         -1.12725357        0.010000
       437         -1.12725426        0.010000
       438         -1.12726139        0.010000
       439         -1.12726356        0.010000
       440         -1.12726491        0.010000
       441         -1.12726521        0.010000
       442         -1.12726575        0.010000
       443         -1.12726712        0.010000
       444         -1.12727260        0.010000
       445         -1.12727707        0.010000
       446         -1.12728457        0.010000
       447         -1.12728827        0.010000
       448         -1.12728883        0.010000
       449         -1.12728963        0.010000
       450         -1.12729004        0.010000
       451         -1.12729312        0.010000
       452         -1.12729360        0.010000
       453         -1.12730233        0.010000
       454         -1.12730379        0.010000
       455         -1.12730768        0.010000
       456         -1.12730786        0.010000
       457         -1.12732114        0.010000
       458         -1.12732711        0.010000
       459         -1.12732784        0.010000
       460         -1.12733553        0.010000
       461         -1.12733953        0.010000
       462         -1.12734009        0.010000
       463         -1.12734043        0.010000
       464         -1.12734062        0.010000
       465         -1.12734695        0.010000
       466         -1.12734882        0.010000
       467         -1.12735759        0.010000
       468         -1.12736359        0.010000
       469         -1.12736629        0.010000
       470         -1.12736937        0.007937
       471         -1.12737357        0.007937
       472         -1.12737359        0.007937
       473         -1.12737735        0.007937
       474         -1.12737901        0.007937
       475         -1.12738415        0.007937
       476         -1.12738508        0.007937
       477         -1.12738744        0.007937
       478         -1.12739185        0.007937
       479         -1.12739212        0.007937
       480         -1.12739327        0.007937
       481         -1.12739678        0.007937
       482         -1.12739813        0.007937
       483         -1.12739830        0.007937
       484         -1.12740058        0.007937
       485         -1.12740511        0.007937
       486         -1.12740592        0.007937
       487         -1.12740601        0.007937
       488         -1.12741008        0.007937
       489         -1.12741101        0.007937
       490         -1.12741214        0.007937
       491         -1.12741577        0.007937
       492         -1.12741611        0.007937
       493         -1.12741840        0.007937
       494         -1.12742468        0.007937
       495         -1.12743007        0.007937
       496         -1.12743181        0.007937
       497         -1.12743558        0.007937
       498         -1.12743836        0.007937
       499         -1.12744321        0.007937
       500         -1.12744346        0.007937
       501         -1.12744547        0.007937
       502         -1.12744649        0.007937
       503         -1.12745150        0.007937
       504         -1.12745400        0.007937
       505         -1.12745412        0.007937
       506         -1.12745573        0.007937
       507         -1.12745647        0.007937
       508         -1.12745834        0.007937
       509         -1.12746810        0.007937
       510         -1.12746838        0.007937
       511         -1.12747160        0.007937
       512         -1.12747848        0.007937
       513         -1.12747925        0.007937
       514         -1.12748068        0.007937
       515         -1.12748469        0.007937
       516         -1.12748650        0.007937
       517         -1.12748852        0.007937
       518         -1.12749054        0.007937
       519         -1.12749093        0.007937
       520         -1.12749093        0.007937
       521         -1.12749499        0.007937
       522         -1.12749741        0.007937
       523         -1.12750065        0.007937
       524         -1.12750427        0.007937
       525         -1.12750470        0.007937
       526         -1.12750526        0.007937
       527         -1.12750789        0.007937
       528         -1.12750847        0.007937
       529         -1.12751662        0.007937
       530         -1.12751823        0.007937
       531         -1.12751889        0.007937
       532         -1.12752544        0.007937
       533         -1.12752784        0.007937
       534         -1.12753097        0.007937
       535         -1.12753782        0.007937
       536         -1.12753864        0.007937
       537         -1.12753875        0.007937
       538         -1.12753979        0.007937
       539         -1.12754015        0.007937
       540         -1.12754028        0.007937
       541         -1.12754230        0.007937
       542         -1.12754401        0.007937
       543         -1.12754696        0.007937
       544         -1.12754926        0.007937
       545         -1.12755102        0.007937
       546         -1.12755375        0.007937
       547         -1.12755575        0.007937
       548         -1.12755939        0.007937
       549         -1.12755954        0.007937
       550         -1.12756440        0.007937
       551         -1.12756712        0.007937
       552         -1.12757224        0.007937
       553         -1.12757663        0.007937
       554         -1.12757713        0.007937
       555         -1.12758570        0.007937
       556         -1.12758571        0.007937
       557         -1.12758861        0.007937
       558         -1.12759033        0.007937
       559         -1.12759161        0.007937
       560         -1.12759552        0.007937
       561         -1.12759749        0.007937
       562         -1.12760334        0.007937
       563         -1.12760502        0.007937
       564         -1.12760588        0.007937
       565         -1.12760645        0.007937
       566         -1.12760858        0.007937
       567         -1.12761201        0.007937
       568         -1.12761363        0.007937
       569         -1.12761814        0.007937
       570         -1.12762187        0.007937
       571         -1.12762196        0.007937
       572         -1.12762472        0.007937
       573         -1.12762661        0.007937
       574         -1.12763100        0.007937
       575         -1.12763293        0.007937
       576         -1.12763361        0.007937
       577         -1.12763719        0.007937
       578         -1.12763792        0.007937
       579         -1.12764304        0.007937
       580         -1.12764552        0.007937
       581         -1.12764659        0.007937
       582         -1.12764896        0.007937
       583         -1.12765348        0.007937
       584         -1.12765689        0.007937
       585         -1.12765760        0.007937
       586         -1.12765782        0.007937
       587         -1.12766039        0.007937
       588         -1.12766223        0.007937
       589         -1.12766284        0.007937
       590         -1.12766410        0.007937
       591         -1.12766815        0.007937
       592         -1.12766842        0.007937
       593         -1.12766862        0.007937
       594         -1.12767306        0.007937
       595         -1.12767344        0.007937
       596         -1.12767677        0.007937
       597         -1.12767744        0.007937
       598         -1.12767876        0.007937
       599         -1.12767937        0.007937
       600         -1.12767953        0.007937
       601         -1.12767988        0.007937
       602         -1.12768451        0.007937
       603         -1.12768618        0.007937
       604         -1.12768672        0.007937
       605         -1.12769040        0.007937
       606         -1.12769098        0.007937
       607         -1.12769382        0.007937
       608         -1.12769561        0.007937
       609         -1.12769638        0.007937
       610         -1.12769931        0.007937
       611         -1.12769973        0.007937
       612         -1.12770098        0.007937
       613         -1.12770837        0.007937
       614         -1.12771086        0.007937
       615         -1.12771163        0.007937
       616         -1.12771187        0.007937
       617         -1.12771581        0.007937
       618         -1.12771657        0.007937
       619         -1.12771746        0.007937
       620         -1.12771892        0.007937
       621         -1.12771897        0.007937
       622         -1.12772313        0.007937
       623         -1.12772353        0.007937
       624         -1.12772593        0.007937
       625         -1.12772805        0.007937
       626         -1.12772847        0.007937
       627         -1.12773040        0.007937
       628         -1.12773149        0.007937
       629         -1.12773384        0.007937
       630         -1.12773521        0.007937
       631         -1.12773620        0.007937
       632         -1.12773867        0.007937
       633         -1.12773920        0.007937
       634         -1.12774011        0.007937
       635         -1.12774156        0.007937
       636         -1.12774480        0.007937
       637         -1.12774546        0.007937
       638         -1.12774857        0.007937
       639         -1.12774994        0.007937
       640         -1.12775229        0.007937
       641         -1.12775314        0.007937
       642         -1.12775707        0.007937
       643         -1.12775708        0.007937
       644         -1.12775855        0.007937
       645         -1.12775866        0.007937
       646         -1.12776298        0.007937
       647         -1.12776507        0.007937
       648         -1.12776896        0.007937
       649         -1.12777163        0.007937
       650         -1.12777752        0.007937
       651         -1.12777754        0.007937
       652         -1.12778004        0.007937
       653         -1.12778221        0.007937
       654         -1.12778546        0.007937
       655         -1.12778716        0.007937
       656         -1.12778920        0.007937
       657         -1.12779163        0.007937
       658         -1.12779244        0.007937
       659         -1.12779297        0.007937
       660         -1.12779398        0.007937
       661         -1.12779525        0.007937
       662         -1.12779693        0.006300
       663         -1.12779740        0.006300
       664         -1.12779748        0.006300
       665         -1.12780025        0.006300
       666         -1.12780652        0.006300
       667         -1.12780831        0.006300
       668         -1.12781174        0.006300
       669         -1.12781306        0.006300
       670         -1.12781338        0.006300
       671         -1.12781500        0.006300
       672         -1.12781683        0.006300
       673         -1.12781716        0.006300
       674         -1.12782229        0.006300
       675         -1.12782271        0.006300
       676         -1.12782298        0.006300
       677         -1.12782395        0.006300
       678         -1.12782413        0.006300
       679         -1.12782478        0.006300
       680         -1.12782536        0.006300
       681         -1.12782762        0.006300
       682         -1.12782829        0.006300
       683         -1.12782867        0.006300
       684         -1.12782949        0.006300
       685         -1.12783027        0.006300
       686         -1.12783135        0.006300
       687         -1.12783514        0.006300
       688         -1.12783712        0.006300
       689         -1.12783800        0.006300
       690         -1.12783938        0.006300
       691         -1.12783958        0.006300
       692         -1.12784107        0.006300
       693         -1.12784193        0.006300
       694         -1.12784724        0.006300
       695         -1.12784774        0.006300
       696         -1.12785063        0.006300
       697         -1.12785397        0.006300
       698         -1.12785456        0.006300
       699         -1.12785649        0.006300
       700         -1.12785864        0.006300
       701         -1.12785882        0.006300
       702         -1.12786203        0.006300
       703         -1.12786378        0.006300
       704         -1.12786429        0.006300
       705         -1.12786449        0.006300
       706         -1.12786472        0.006300
       707         -1.12786580        0.006300
       708         -1.12786874        0.006300
       709         -1.12786990        0.006300
       710         -1.12787091        0.006300
       711         -1.12787153        0.006300
       712         -1.12787314        0.006300
       713         -1.12787360        0.006300
       714         -1.12787622        0.006300
       715         -1.12787936        0.006300
       716         -1.12788066        0.006300
       717         -1.12788388        0.006300
       718         -1.12788414        0.006300
       719         -1.12788426        0.006300
       720         -1.12788574        0.006300
       721         -1.12788701        0.006300
       722         -1.12788714        0.006300
       723         -1.12789067        0.006300
       724         -1.12789083        0.006300
       725         -1.12789168        0.006300
       726         -1.12789191        0.006300
       727         -1.12789431        0.006300
       728         -1.12789447        0.006300
       729         -1.12789728        0.006300
       730         -1.12790141        0.006300
       731         -1.12790327        0.006300
       732         -1.12790432        0.006300
       733         -1.12790588        0.006300
       734         -1.12790711        0.006300
       735         -1.12790822        0.006300
       736         -1.12790877        0.006300
       737         -1.12791178        0.006300
       738         -1.12791249        0.006300
       739         -1.12791502        0.006300
       740         -1.12791568        0.006300
       741         -1.12791712        0.006300
       742         -1.12791734        0.006300
       743         -1.12791908        0.006300
       744         -1.12791931        0.006300
       745         -1.12792178        0.006300
       746         -1.12792560        0.006300
       747         -1.12792707        0.006300
       748         -1.12792865        0.006300
       749         -1.12792903        0.006300
       750         -1.12792906        0.006300
       751         -1.12793104        0.006300
       752         -1.12793135        0.006300
       753         -1.12793242        0.006300
       754         -1.12793367        0.006300
       755         -1.12793439        0.006300
       756         -1.12793468        0.006300
       757         -1.12793652        0.006300
       758         -1.12793849        0.006300
       759         -1.12794019        0.006300
       760         -1.12794087        0.006300
       761         -1.12794115        0.006300
       762         -1.12794205        0.006300
       763         -1.12794232        0.006300
       764         -1.12794425        0.006300
       765         -1.12794853        0.006300
       766         -1.12794995        0.006300
       767         -1.12795246        0.006300
       768         -1.12795321        0.006300
       769         -1.12795532        0.006300
       770         -1.12795671        0.006300
       771         -1.12795713        0.006300
       772         -1.12795781        0.006300
       773         -1.12795951        0.006300
       774         -1.12796135        0.006300
       775         -1.12796197        0.006300
       776         -1.12796385        0.006300
       777         -1.12796408        0.006300
       778         -1.12796471        0.006300
       779         -1.12796608        0.006300
       780         -1.12796688        0.006300
       781         -1.12796957        0.006300
       782         -1.12797132        0.006300
       783         -1.12797185        0.006300
       784         -1.12797410        0.006300
       785         -1.12797429        0.006300
       786         -1.12797445        0.006300
       787         -1.12797544        0.006300
       788         -1.12797577        0.006300
       789         -1.12797645        0.006300
       790         -1.12797829        0.006300
       791         -1.12798119        0.006300
       792         -1.12798119        0.006300
       793         -1.12798232        0.006300
       794         -1.12798298        0.006300
       795         -1.12798476        0.006300
       796         -1.12798728        0.006300
       797         -1.12798807        0.006300
       798         -1.12798812        0.006300
       799         -1.12799029        0.006300
       800         -1.12799083        0.006300
       801         -1.12799128        0.006300
       802         -1.12799172        0.006300
       803         -1.12799192        0.006300
       804         -1.12799212        0.006300
       805         -1.12799302        0.006300
       806         -1.12799331        0.006300
       807         -1.12799439        0.006300
       808         -1.12799723        0.006300
       809         -1.12799759        0.006300
       810         -1.12799953        0.006300
       811         -1.12800299        0.006300
       812         -1.12800403        0.006300
       813         -1.12800411        0.006300
       814         -1.12800516        0.006300
       815         -1.12800592        0.006300
       816         -1.12800783        0.006300
       817         -1.12801000        0.006300
       818         -1.12801072        0.006300
       819         -1.12801117        0.006300
       820         -1.12801199        0.006300
       821         -1.12801346        0.006300
       822         -1.12801403        0.006300
       823         -1.12801490        0.006300
       824         -1.12801573        0.006300
       825         -1.12801726        0.006300
       826         -1.12801739        0.006300
       827         -1.12801780        0.006300
       828         -1.12802030        0.006300
       829         -1.12802100        0.006300
       830         -1.12802253        0.006300
       831         -1.12802361        0.006300
       832         -1.12802363        0.006300
       833         -1.12802506        0.006300
       834         -1.12802565        0.006300
       835         -1.12802676        0.006300
       836         -1.12802777        0.006300
       837         -1.12802915        0.006300
       838         -1.12803000        0.006300
       839         -1.12803040        0.006300
       840         -1.12803043        0.006300
       841         -1.12803076        0.006300
       842         -1.12803369        0.006300
       843         -1.12803477        0.006300
       844         -1.12803662        0.006300
       845         -1.12803865        0.006300
       846         -1.12803871        0.006300
       847         -1.12803896        0.006300
       848         -1.12803963        0.006300
       849         -1.12804256        0.006300
       850         -1.12804451        0.006300
       851         -1.12804501        0.006300
       852         -1.12804617        0.006300
       853         -1.12804730        0.006300
       854         -1.12804938        0.006300
       855         -1.12804957        0.006300
       856         -1.12804989        0.006300
       857         -1.12805177        0.006300
       858         -1.12805217        0.006300
       859         -1.12805315        0.006300
       860         -1.12805418        0.006300
       861         -1.12805509        0.006300
       862         -1.12805636        0.006300
       863         -1.12805722        0.006300
       864         -1.12805755        0.006300
       865         -1.12805911        0.006300
       866         -1.12806079        0.006300
       867         -1.12806265        0.006300
       868         -1.12806279        0.006300
       869         -1.12806420        0.006300
       870         -1.12806625        0.006300
       871         -1.12806645        0.006300
       872         -1.12806796        0.006300
       873         -1.12806807        0.006300
       874         -1.12806890        0.006300
       875         -1.12807230        0.006300
       876         -1.12807370        0.006300
       877         -1.12807491        0.006300
       878         -1.12807691        0.006300
       879         -1.12807716        0.006300
       880         -1.12807773        0.006300
       881         -1.12807834        0.006300
       882         -1.12807929        0.006300
       883         -1.12807990        0.006300
       884         -1.12808108        0.006300
       885         -1.12808110        0.006300
       886         -1.12808321        0.006300
       887         -1.12808451        0.006300
       888         -1.12808493        0.006300
       889         -1.12808506        0.006300
       890         -1.12808802        0.006300
       891         -1.12809107        0.006300
       892         -1.12809182        0.006300
       893         -1.12809189        0.006300
       894         -1.12809292        0.006300
       895         -1.12809473        0.006300
       896         -1.12809702        0.006300
       897         -1.12809811        0.006300
       898         -1.12809877        0.006300
       899         -1.12810033        0.006300
       900         -1.12810051        0.006300
       901         -1.12810092        0.006300
       902         -1.12810257        0.006300
       903         -1.12810322        0.006300
       904         -1.12810367        0.006300
       905         -1.12810408        0.006300
       906         -1.12810485        0.006300
       907         -1.12810596        0.006300
       908         -1.12810658        0.006300
       909         -1.12810977        0.006300
       910         -1.12811047        0.006300
       911         -1.12811169        0.006300
       912         -1.12811534        0.006300
       913         -1.12811564        0.006300
       914         -1.12811606        0.006300
       915         -1.12811606        0.006300
       916         -1.12811634        0.006300
       917         -1.12811705        0.006300
       918         -1.12811761        0.006300
       919         -1.12811884        0.006300
       920         -1.12812294        0.006300
       921         -1.12812367        0.006300
       922         -1.12812368        0.006300
       923         -1.12812452        0.006300
       924         -1.12812665        0.006300
       925         -1.12812829        0.006300
       926         -1.12812904        0.006300
       927         -1.12813103        0.006300
       928         -1.12813254        0.006300
       929         -1.12813309        0.006300
       930         -1.12813458        0.006300
       931         -1.12813573        0.006300
       932         -1.12813606        0.006300
       933         -1.12813906        0.006300
       934         -1.12814054        0.006300
       935         -1.12814100        0.006300
       936         -1.12814146        0.006300
       937         -1.12814153        0.006300
       938         -1.12814302        0.006300
       939         -1.12814386        0.006300
       940         -1.12814443        0.006300
       941         -1.12814484        0.006300
       942         -1.12814496        0.006300
       943         -1.12814566        0.006300
       944         -1.12814668        0.006300
       945         -1.12814840        0.006300
       946         -1.12814928        0.006300
       947         -1.12815049        0.006300
       948         -1.12815176        0.006300
       949         -1.12815230        0.006300
       950         -1.12815353        0.006300
       951         -1.12815443        0.006300
       952         -1.12815532        0.006300
       953         -1.12815741        0.006300
       954         -1.12815768        0.006300
       955         -1.12816012        0.006300
       956         -1.12816126        0.006300
       957         -1.12816216        0.006300
       958         -1.12816223        0.006300
       959         -1.12816312        0.006300
       960         -1.12816458        0.006300
       961         -1.12816462        0.006300
       962         -1.12816557        0.006300
       963         -1.12816640        0.006300
       964         -1.12816734        0.006300
       965         -1.12816747        0.006300
       966         -1.12816822        0.006300
       967         -1.12816844        0.006300
       968         -1.12816874        0.006300
       969         -1.12816951        0.006300
       970         -1.12816954        0.006300
       971         -1.12817162        0.006300
       972         -1.12817264        0.006300
       973         -1.12817329        0.006300
       974         -1.12817473        0.006300
       975         -1.12817630        0.006300
       976         -1.12817769        0.006300
       977         -1.12817809        0.006300
       978         -1.12817861        0.006300
       979         -1.12817883        0.006300
       980         -1.12817967        0.006300
       981         -1.12817993        0.006300
       982         -1.12817998        0.006300
       983         -1.12818138        0.006300
       984         -1.12818313        0.006300
       985         -1.12818496        0.006300
       986         -1.12818500        0.006300
       987         -1.12818514        0.006300
       988         -1.12818788        0.006300
       989         -1.12818845        0.006300
       990         -1.12818910        0.006300
       991         -1.12818976        0.006300
       992         -1.12819096        0.006300
       993         -1.12819214        0.006300
       994         -1.12819269        0.006300
       995         -1.12819378        0.006300
       996         -1.12819513        0.006300
       997         -1.12819528        0.006300
       998         -1.12819576        0.006300
       999         -1.12819680        0.006300
      1000         -1.12819787        0.006300
      1001         -1.12819790        0.006300
      1002         -1.12819834        0.006300
      1003         -1.12819849        0.006300
      1004         -1.12819859        0.006300
      1005         -1.12819984        0.006300
      1006         -1.12820136        0.006300
      1007         -1.12820174        0.006300
      1008         -1.12820195        0.006300
      1009         -1.12820225        0.006300
      1010         -1.12820284        0.006300
      1011         -1.12820300        0.006300
      1012         -1.12820336        0.006300
      1013         -1.12820484        0.006300
      1014         -1.12820559        0.006300
      1015         -1.12820750        0.006300
      1016         -1.12820882        0.006300
      1017         -1.12821008        0.006300
      1018         -1.12821043        0.006300
      1019         -1.12821045        0.006300
      1020         -1.12821088        0.006300
      1021         -1.12821109        0.006300
      1022         -1.12821209        0.006300
      1023         -1.12821227        0.006300
      1024         -1.12821283        0.006300
      1025         -1.12821287        0.006300
      1026         -1.12821442        0.006300
      1027         -1.12821469        0.006300
      1028         -1.12821523        0.006300
      1029         -1.12821658        0.006300
      1030         -1.12821839        0.006300
      1031         -1.12821847        0.006300
      1032         -1.12821905        0.006300
      1033         -1.12821937        0.006300
      1034         -1.12821949        0.006300
      1035         -1.12822046        0.006300
      1036         -1.12822150        0.006300
      1037         -1.12822272        0.006300
      1038         -1.12822320        0.006300
      1039         -1.12822441        0.006300
      1040         -1.12822500        0.006300
      1041         -1.12822522        0.006300
      1042         -1.12822653        0.006300
      1043         -1.12822727        0.006300
      1044         -1.12822808        0.006300
      1045         -1.12823014        0.006300
      1046         -1.12823133        0.006300
      1047         -1.12823248        0.006300
      1048         -1.12823297        0.006300
      1049         -1.12823362        0.006300
      1050         -1.12823416        0.006300
      1051         -1.12823443        0.006300
      1052         -1.12823469        0.006300
      1053         -1.12823607        0.006300
      1054         -1.12823766        0.006300
      1055         -1.12823820        0.006300
      1056         -1.12823936        0.006300
      1057         -1.12824133        0.006300
      1058         -1.12824239        0.006300
      1059         -1.12824316        0.006300
      1060         -1.12824360        0.006300
      1061         -1.12824406        0.006300
      1062         -1.12824426        0.006300
      1063         -1.12824446        0.006300
      1064         -1.12824483        0.006300
      1065         -1.12824550        0.006300
      1066         -1.12824556        0.006300
      1067         -1.12824565        0.006300
      1068         -1.12824590        0.006300
      1069         -1.12824643        0.006300
      1070         -1.12824879        0.006300
      1071         -1.12824893        0.006300
      1072         -1.12824931        0.006300
      1073         -1.12824955        0.006300
      1074         -1.12825085        0.006300
      1075         -1.12825107        0.006300
      1076         -1.12825190        0.006300
      1077         -1.12825233        0.006300
      1078         -1.12825247        0.006300
      1079         -1.12825426        0.006300
      1080         -1.12825436        0.006300
      1081         -1.12825506        0.006300
      1082         -1.12825526        0.006300
      1083         -1.12825556        0.006300
      1084         -1.12825614        0.006300
      1085         -1.12825616        0.006300
      1086         -1.12825660        0.006300
      1087         -1.12825710        0.006300
      1088         -1.12825731        0.006300
      1089         -1.12825751        0.006300
      1090         -1.12825765        0.006300
      1091         -1.12825892        0.006300
      1092         -1.12826012        0.006300
      1093         -1.12826026        0.006300
      1094         -1.12826055        0.006300
      1095         -1.12826102        0.006300
      1096         -1.12826204        0.006300
      1097         -1.12826316        0.006300
      1098         -1.12826356        0.006300
      1099         -1.12826415        0.006300
      1100         -1.12826614        0.006300
      1101         -1.12826660        0.006300
      1102         -1.12826770        0.006300
      1103         -1.12826944        0.006300
      1104         -1.12827108        0.006300
      1105         -1.12827131        0.006300
      1106         -1.12827135        0.006300
      1107         -1.12827266        0.006300
      1108         -1.12827293        0.006300
      1109         -1.12827475        0.006300
      1110         -1.12827526        0.006300
      1111         -1.12827578        0.006300
      1112         -1.12827668        0.006300
      1113         -1.12827677        0.006300
      1114         -1.12827710        0.005000
      1115         -1.12827823        0.005000
      1116         -1.12827846        0.005000
      1117         -1.12827857        0.005000
      1118         -1.12827904        0.005000
      1119         -1.12827940        0.005000
      1120         -1.12827945        0.005000
      1121         -1.12828025        0.005000
      1122         -1.12828033        0.005000
      1123         -1.12828043        0.005000
      1124         -1.12828092        0.005000
      1125         -1.12828099        0.005000
      1126         -1.12828137        0.005000
      1127         -1.12828408        0.005000
      1128         -1.12828412        0.005000
      1129         -1.12828420        0.003969
      1130         -1.12828486        0.003969
      1131         -1.12828521        0.003969
      1132         -1.12828547        0.003969
      1133         -1.12828555        0.003969
      1134         -1.12828619        0.003969
      1135         -1.12828685        0.003969
      1136         -1.12828713        0.003969
      1137         -1.12828718        0.003969
      1138         -1.12828732        0.003969
      1139         -1.12828787        0.003969
      1140         -1.12828862        0.003969
      1141         -1.12828887        0.003150
      1142         -1.12828907        0.003150
      1143         -1.12828931        0.003150
      1144         -1.12828949        0.003150
      1145         -1.12828968        0.003150
      1146         -1.12828973        0.003150
      1147         -1.12829001        0.003150
      1148         -1.12829010        0.003150
      1149         -1.12829022        0.003150
      1150         -1.12829078        0.003150
      1151         -1.12829081        0.003150
      1152         -1.12829097        0.003150
      1153         -1.12829150        0.003150
      1154         -1.12829158        0.003150
      1155         -1.12829228        0.003150
      1156         -1.12829284        0.003150
      1157         -1.12829296        0.003150
      1158         -1.12829341        0.003150
      1159         -1.12829347        0.003150
      1160         -1.12829381        0.003150
      1161         -1.12829403        0.003150
      1162         -1.12829443        0.003150
      1163         -1.12829444        0.003150
      1164         -1.12829509        0.003150
      1165         -1.12829525        0.003150
      1166         -1.12829535        0.003150
      1167         -1.12829569        0.003150
      1168         -1.12829623        0.003150
      1169         -1.12829626        0.003150
      1170         -1.12829675        0.003150
      1171         -1.12829723        0.003150
      1172         -1.12829746        0.003150
      1173         -1.12829763        0.003150
      1174         -1.12829795        0.003150
      1175         -1.12829867        0.003150
      1176         -1.12829869        0.003150
      1177         -1.12829884        0.003150
      1178         -1.12829911        0.003150
      1179         -1.12829920        0.002500
      1180         -1.12829940        0.002500
      1181         -1.12829970        0.002500
      1182         -1.12829989        0.002500
      1183         -1.12830021        0.002500
      1184         -1.12830025        0.002500
      1185         -1.12830026        0.002500
      1186         -1.12830066        0.002500
      1187         -1.12830090        0.002500
      1188         -1.12830100        0.002500
      1189         -1.12830116        0.002500
      1190         -1.12830131        0.002500
      1191         -1.12830169        0.002500
      1192         -1.12830181        0.002500
      1193         -1.12830197        0.002500
      1194         -1.12830270        0.002500
      1195         -1.12830272        0.002500
      1196         -1.12830290        0.002500
      1197         -1.12830340        0.002500
      1198         -1.12830356        0.002500
      1199         -1.12830392        0.002500
      1200         -1.12830397        0.002500
      1201         -1.12830425        0.002500
      1202         -1.12830432        0.002500
      1203         -1.12830472        0.002500
      1204         -1.12830473        0.002500
      1205         -1.12830506        0.002500
      1206         -1.12830510        0.002500
      1207         -1.12830534        0.002500
      1208         -1.12830551        0.002500
      1209         -1.12830578        0.002500
      1210         -1.12830585        0.002500
      1211         -1.12830592        0.002500
      1212         -1.12830607        0.002500
      1213         -1.12830645        0.002500
      1214         -1.12830660        0.002500
      1215         -1.12830673        0.002500
      1216         -1.12830675        0.002500
      1217         -1.12830713        0.002500
      1218         -1.12830713        0.002500
      1219         -1.12830715        0.002500
      1220         -1.12830721        0.002500
      1221         -1.12830730        0.002500
      1222         -1.12830785        0.002500
      1223         -1.12830793        0.002500
      1224         -1.12830800        0.002500
      1225         -1.12830829        0.002500
      1226         -1.12830835        0.002500
      1227         -1.12830858        0.002500
      1228         -1.12830889        0.002500
      1229         -1.12830933        0.002500
      1230         -1.12830971        0.002500
      1231         -1.12830972        0.002500
      1232         -1.12830975        0.002500
      1233         -1.12831007        0.002500
      1234         -1.12831046        0.002500
      1235         -1.12831063        0.002500
      1236         -1.12831070        0.002500
      1237         -1.12831103        0.002500
      1238         -1.12831116        0.002500
      1239         -1.12831142        0.002500
      1240         -1.12831164        0.002500
      1241         -1.12831186        0.002500
      1242         -1.12831196        0.002500
      1243         -1.12831209        0.002500
      1244         -1.12831245        0.002500
      1245         -1.12831265        0.002500
      1246         -1.12831269        0.002500
      1247         -1.12831299        0.002500
      1248         -1.12831329        0.002500
      1249         -1.12831353        0.002500
      1250         -1.12831357        0.002500
      1251         -1.12831370        0.002500
      1252         -1.12831373        0.002500
      1253         -1.12831395        0.002500
      1254         -1.12831404        0.002500
      1255         -1.12831437        0.002500
      1256         -1.12831446        0.002500
      1257         -1.12831481        0.002500
      1258         -1.12831505        0.002500
      1259         -1.12831529        0.002500
      1260         -1.12831551        0.002500
      1261         -1.12831561        0.002500
      1262         -1.12831575        0.002500
      1263         -1.12831608        0.002500
      1264         -1.12831636        0.002500
      1265         -1.12831645        0.002500
      1266         -1.12831648        0.002500
      1267         -1.12831678        0.002500
      1268         -1.12831684        0.002500
      1269         -1.12831699        0.002500
      1270         -1.12831727        0.002500
      1271         -1.12831765        0.002500
      1272         -1.12831772        0.002500
      1273         -1.12831790        0.002500
      1274         -1.12831820        0.002500
      1275         -1.12831823        0.002500
      1276         -1.12831835        0.002500
      1277         -1.12831843        0.002500
      1278         -1.12831852        0.002500
      1279         -1.12831866        0.002500
      1280         -1.12831874        0.002500
      1281         -1.12831886        0.002500
      1282         -1.12831952        0.002500
      1283         -1.12831959        0.002500
      1284         -1.12831971        0.002500
      1285         -1.12831994        0.002500
      1286         -1.12831997        0.002500
      1287         -1.12831998        0.002500
      1288         -1.12832012        0.002500
      1289         -1.12832016        0.002500
      1290         -1.12832042        0.002500
      1291         -1.12832057        0.002500
      1292         -1.12832081        0.002500
      1293         -1.12832085        0.002500
      1294         -1.12832129        0.002500
      1295         -1.12832129        0.002500
      1296         -1.12832132        0.002500
      1297         -1.12832152        0.002500
      1298         -1.12832191        0.002500
      1299         -1.12832210        0.002500
      1300         -1.12832232        0.002500
      1301         -1.12832245        0.002500
      1302         -1.12832254        0.002500
      1303         -1.12832272        0.002500
      1304         -1.12832276        0.002500
      1305         -1.12832290        0.002500
      1306         -1.12832328        0.002500
      1307         -1.12832330        0.002500
      1308         -1.12832343        0.002500
      1309         -1.12832354        0.002500
      1310         -1.12832356        0.002500
      1311         -1.12832364        0.002500
      1312         -1.12832367        0.002500
      1313         -1.12832392        0.002500
      1314         -1.12832403        0.002500
      1315         -1.12832419        0.002500
      1316         -1.12832432        0.002500
      1317         -1.12832443        0.002500
      1318         -1.12832451        0.002500
      1319         -1.12832459        0.002500
      1320         -1.12832471        0.002500
      1321         -1.12832481        0.002500
      1322         -1.12832483        0.002500
      1323         -1.12832514        0.002500
      1324         -1.12832527        0.002500
      1325         -1.12832540        0.002500
      1326         -1.12832555        0.002500
      1327         -1.12832568        0.002500
      1328         -1.12832607        0.002500
      1329         -1.12832612        0.002500
      1330         -1.12832629        0.002500
      1331         -1.12832647        0.002500
      1332         -1.12832651        0.002500
      1333         -1.12832677        0.002500
      1334         -1.12832708        0.002500
      1335         -1.12832728        0.002500
      1336         -1.12832735        0.002500
      1337         -1.12832745        0.002500
      1338         -1.12832747        0.002500
      1339         -1.12832748        0.002500
      1340         -1.12832752        0.002500
      1341         -1.12832770        0.002500
      1342         -1.12832803        0.002500
      1343         -1.12832809        0.002500
      1344         -1.12832833        0.002500
      1345         -1.12832850        0.002500
      1346         -1.12832853        0.002500
      1347         -1.12832857        0.002500
      1348         -1.12832902        0.002500
      1349         -1.12832924        0.002500
      1350         -1.12832934        0.002500
      1351         -1.12832935        0.002500
      1352         -1.12832961        0.002500
      1353         -1.12832976        0.002500
      1354         -1.12832977        0.002500
      1355         -1.12832977        0.002500
      1356         -1.12833012        0.002500
      1357         -1.12833012        0.002500
      1358         -1.12833018        0.002500
      1359         -1.12833023        0.002500
      1360         -1.12833030        0.002500
      1361         -1.12833060        0.002500
      1362         -1.12833068        0.002500
      1363         -1.12833075        0.002500
      1364         -1.12833077        0.002500
      1365         -1.12833077        0.002500
      1366         -1.12833101        0.002500
      1367         -1.12833108        0.002500
      1368         -1.12833113        0.002500
      1369         -1.12833129        0.002500
      1370         -1.12833170        0.002500
      1371         -1.12833178        0.002500
      1372         -1.12833192        0.001984
      1373         -1.12833204        0.001984
      1374         -1.12833207        0.001984
      1375         -1.12833221        0.001984
      1376         -1.12833238        0.001984
      1377         -1.12833258        0.001984
      1378         -1.12833258        0.001984
      1379         -1.12833265        0.001984
      1380         -1.12833271        0.001984
      1381         -1.12833291        0.001984
      1382         -1.12833311        0.001984
      1383         -1.12833315        0.001984
      1384         -1.12833323        0.001984
      1385         -1.12833334        0.001984
      1386         -1.12833364        0.001984
      1387         -1.12833371        0.001984
      1388         -1.12833378        0.001984
      1389         -1.12833388        0.001984
      1390         -1.12833391        0.001984
      1391         -1.12833404        0.001984
      1392         -1.12833407        0.001984
      1393         -1.12833419        0.001984
      1394         -1.12833420        0.001984
      1395         -1.12833432        0.001984
      1396         -1.12833439        0.001984
      1397         -1.12833439        0.001984
      1398         -1.12833441        0.001984
      1399         -1.12833454        0.001984
      1400         -1.12833457        0.001984
      1401         -1.12833460        0.001984
      1402         -1.12833462        0.001984
      1403         -1.12833480        0.001984
      1404         -1.12833487        0.001984
      1405         -1.12833491        0.001984
      1406         -1.12833500        0.001984
      1407         -1.12833505        0.001984
      1408         -1.12833510        0.001984
      1409         -1.12833513        0.001984
      1410         -1.12833513        0.001984
      1411         -1.12833524        0.001984
      1412         -1.12833524        0.001984
      1413         -1.12833530        0.001984
      1414         -1.12833544        0.001984
      1415         -1.12833553        0.001984
      1416         -1.12833556        0.001575
      1417         -1.12833559        0.001575
      1418         -1.12833563        0.001575
      1419         -1.12833565        0.001575
      1420         -1.12833569        0.001575
      1421         -1.12833580        0.001575
      1422         -1.12833599        0.001575
      1423         -1.12833613        0.001575
      1424         -1.12833616        0.001575
      1425         -1.12833623        0.001575
      1426         -1.12833643        0.001575
      1427         -1.12833648        0.001575
      1428         -1.12833653        0.001575
      1429         -1.12833657        0.001575
      1430         -1.12833666        0.001575
      1431         -1.12833669        0.001575
      1432         -1.12833670        0.001575
      1433         -1.12833689        0.001575
      1434         -1.12833689        0.001575
      1435         -1.12833696        0.001575
      1436         -1.12833700        0.001575
      1437         -1.12833710        0.001575
      1438         -1.12833710        0.001575
      1439         -1.12833710        0.001575
      1440         -1.12833719        0.001575
      1441         -1.12833726        0.001575
      1442         -1.12833735        0.001575
      1443         -1.12833740        0.001575
      1444         -1.12833743        0.001575
      1445         -1.12833761        0.001575
      1446         -1.12833763        0.001575
      1447         -1.12833771        0.001575
      1448         -1.12833779        0.001575
      1449         -1.12833783        0.001575
      1450         -1.12833791        0.001575
      1451         -1.12833797        0.001575
      1452         -1.12833798        0.001575
      1453         -1.12833801        0.001575
      1454         -1.12833803        0.001250
      1455         -1.12833810        0.001250
      1456         -1.12833819        0.001250
      1457         -1.12833826        0.001250
      1458         -1.12833837        0.001250
      1459         -1.12833841        0.001250
      1460         -1.12833842        0.001250
      1461         -1.12833846        0.001250
      1462         -1.12833849        0.001250
      1463         -1.12833853        0.001250
      1464         -1.12833857        0.001250
      1465         -1.12833872        0.001250
      1466         -1.12833873        0.001250
      1467         -1.12833875        0.001250
      1468         -1.12833881        0.001250
      1469         -1.12833881        0.001250
      1470         -1.12833888        0.001250
      1471         -1.12833896        0.001250
      1472         -1.12833901        0.001250
      1473         -1.12833905        0.001250
      1474         -1.12833911        0.001250
      1475         -1.12833913        0.001250
      1476         -1.12833916        0.001250
      1477         -1.12833918        0.001250
      1478         -1.12833926        0.001250
      1479         -1.12833930        0.001250
      1480         -1.12833941        0.001250
      1481         -1.12833952        0.001250
      1482         -1.12833953        0.001250
      1483         -1.12833954        0.001250
      1484         -1.12833955        0.001250
      1485         -1.12833963        0.001250
      1486         -1.12833964        0.001250
      1487         -1.12833973        0.001250
      1488         -1.12833974        0.001250
      1489         -1.12833980        0.001250
      1490         -1.12833982        0.001250
      1491         -1.12833990        0.001250
      1492         -1.12833991        0.001250
      1493         -1.12833998        0.001250
      1494         -1.12834000        0.001250
      1495         -1.12834002        0.001250
      1496         -1.12834005        0.001250
      1497         -1.12834006        0.001250
      1498         -1.12834010        0.001250
      1499         -1.12834020        0.001250
      1500         -1.12834026        0.001250
      1501         -1.12834031        0.001250
      1502         -1.12834035        0.001250
      1503         -1.12834038        0.001250
      1504         -1.12834044        0.001250
      1505         -1.12834045        0.001250
      1506         -1.12834053        0.001250
      1507         -1.12834054        0.001250
      1508         -1.12834056        0.001250
      1509         -1.12834063        0.001250
      1510         -1.12834064        0.001250
      1511         -1.12834070        0.001250
      1512         -1.12834073        0.001250
      1513         -1.12834074        0.001250
      1514         -1.12834083        0.001250
      1515         -1.12834091        0.001250
      1516         -1.12834096        0.001250
      1517         -1.12834102        0.001250
      1518         -1.12834102        0.001250
      1519         -1.12834107        0.001250
      1520         -1.12834107        0.001250
      1521         -1.12834111        0.001250
      1522         -1.12834121        0.001250
      1523         -1.12834121        0.001250
      1524         -1.12834123        0.001250
      1525         -1.12834129        0.001250
      1526         -1.12834138        0.001250
      1527         -1.12834152        0.001250
      1528         -1.12834153        0.001250
      1529         -1.12834157        0.001250
      1530         -1.12834160        0.001250
      1531         -1.12834161        0.001250
      1532         -1.12834164        0.001250
      1533         -1.12834178        0.001250
      1534         -1.12834178        0.001250
      1535         -1.12834180        0.001250
      1536         -1.12834180        0.001250
      1537         -1.12834184        0.001250
      1538         -1.12834185        0.001250
      1539         -1.12834194        0.001250
      1540         -1.12834194        0.001250
      1541         -1.12834197        0.001250
      1542         -1.12834198        0.001250
      1543         -1.12834204        0.001250
      1544         -1.12834204        0.001250
      1545         -1.12834219        0.001250
      1546         -1.12834222        0.001250
      1547         -1.12834223        0.001250
      1548         -1.12834234        0.001250
      1549         -1.12834235        0.001250
      1550         -1.12834236        0.001250
      1551         -1.12834239        0.001250
      1552         -1.12834239        0.001250
[...]
      5284         -1.12834987        0.000001
      5285         -1.12834987        0.000001
      5286         -1.12834987        0.000001
      5287         -1.12834987        0.000001
      5288         -1.12834987        0.000001
      5289         -1.12834987        0.000001
      5290         -1.12834987        0.000001
      5291         -1.12834987        0.000001
      5292         -1.12834987        0.000001
      5293         -1.12834987        0.000001
      5294         -1.12834987        0.000001
      5295         -1.12834987        0.000001
      5296         -1.12834987        0.000001
      5297         -1.12834987        0.000001
      5298         -1.12834987        0.000001
      5299         -1.12834987        0.000001
      5300         -1.12834987        0.000001
      5301         -1.12834987        0.000001
      5302         -1.12834987        0.000001
      5303         -1.12834987        0.000001
      5304         -1.12834987        0.000001
      5305         -1.12834987        0.000001
      5306         -1.12834987        0.000001
      5307         -1.12834987        0.000001
      5308         -1.12834987        0.000001
      5309         -1.12834987        0.000001
      5310         -1.12834987        0.000001
      5311         -1.12834987        0.000001
      5312         -1.12834987        0.000001
      5313         -1.12834987        0.000001
      5314         -1.12834987        0.000001
      5315         -1.12834987        0.000001
      5316         -1.12834987        0.000001
      5317         -1.12834987        0.000001
      5318         -1.12834987        0.000001
      5319         -1.12834987        0.000001
      5320         -1.12834987        0.000001
      5321         -1.12834987        0.000001
      5322         -1.12834987        0.000001
      5323         -1.12834987        0.000001
      5324         -1.12834987        0.000001
      5325         -1.12834987        0.000001
      5326         -1.12834987        0.000001
      5327         -1.12834987        0.000001
      5328         -1.12834987        0.000001
      5329         -1.12834987        0.000001
      5330         -1.12834987        0.000001
      5331         -1.12834987        0.000001
      5332         -1.12834987        0.000001
      5333         -1.12834987        0.000001
      5334         -1.12834987        0.000001
      5335         -1.12834987        0.000001
      5336         -1.12834987        0.000001
      5337         -1.12834987        0.000001
      5338         -1.12834987        0.000001
      5339         -1.12834987        0.000001
      5340         -1.12834987        0.000001
      5341         -1.12834987        0.000001
      5342         -1.12834987        0.000001
      5343         -1.12834987        0.000001
      5344         -1.12834987        0.000001
      5345         -1.12834987        0.000001
      5346         -1.12834987        0.000001
      5347         -1.12834987        0.000001
      5348         -1.12834987        0.000001
      5349         -1.12834987        0.000001
      5350         -1.12834987        0.000001
      5351         -1.12834987        0.000001
      5352         -1.12834987        0.000001
      5353         -1.12834987        0.000001
      5354         -1.12834987        0.000001
      5355         -1.12834987        0.000001
      5356         -1.12834987        0.000001
      5357         -1.12834987        0.000001
      5358         -1.12834987        0.000001
      5359         -1.12834987        0.000001
      5360         -1.12834987        0.000001
      5361         -1.12834987        0.000001
      5362         -1.12834987        0.000001
      5363         -1.12834987        0.000001
      5364         -1.12834987        0.000001
      5365         -1.12834987        0.000001
      5366         -1.12834987        0.000001
      5367         -1.12834987        0.000001
      5368         -1.12834987        0.000001
      5369         -1.12834987        0.000001
      5370         -1.12834987        0.000001
      5371         -1.12834987        0.000001
      5372         -1.12834987        0.000001
      5373         -1.12834987        0.000001
      5374         -1.12834987        0.000001
      5375         -1.12834987        0.000001
      5376         -1.12834987        0.000001
      5377         -1.12834987        0.000001
      5378         -1.12834987        0.000001
      5379         -1.12834987        0.000001
      5380         -1.12834987        0.000001
      5381         -1.12834987        0.000001
      5382         -1.12834987        0.000001
      5383         -1.12834987        0.000001
      5384         -1.12834987        0.000001
      5385         -1.12834987        0.000001
      5386         -1.12834987        0.000001
      5387         -1.12834987        0.000001
      5388         -1.12834987        0.000001
      5389         -1.12834987        0.000001
      5390         -1.12834987        0.000001
      5391         -1.12834987        0.000001
      5392         -1.12834987        0.000001
      5393         -1.12834987        0.000001
      5394         -1.12834987        0.000001
      5395         -1.12834987        0.000001
      5396         -1.12834987        0.000001
      5397         -1.12834987        0.000001
      5398         -1.12834987        0.000001
      5399         -1.12834987        0.000001
      5400         -1.12834987        0.000001
      5401         -1.12834987        0.000001
      5402         -1.12834987        0.000001
      5403         -1.12834987        0.000001
      5404         -1.12834987        0.000001
      5405         -1.12834987        0.000001
      5406         -1.12834987        0.000001
      5407         -1.12834987        0.000001
      5408         -1.12834987        0.000001
      5409         -1.12834987        0.000001
      5410         -1.12834987        0.000001
      5411         -1.12834987        0.000001
      5412         -1.12834987        0.000001
      5413         -1.12834987        0.000001
      5414         -1.12834987        0.000001
      5415         -1.12834987        0.000001
      5416         -1.12834987        0.000001
      5417         -1.12834987        0.000001
      5418         -1.12834987        0.000001
      5419         -1.12834987        0.000001
      5420         -1.12834987        0.000001
      5421         -1.12834987        0.000001
      5422         -1.12834987        0.000001
      5423         -1.12834987        0.000001
      5424         -1.12834987        0.000001
      5425         -1.12834987        0.000001
      5426         -1.12834987        0.000001
      5427         -1.12834987        0.000001
      5428         -1.12834987        0.000001
      5429         -1.12834987        0.000001
      5430         -1.12834987        0.000001
      5431         -1.12834987        0.000001
      5432         -1.12834987        0.000001
      5433         -1.12834987        0.000001
      5434         -1.12834987        0.000001
      5435         -1.12834987        0.000001
      5436         -1.12834987        0.000001
      5437         -1.12834987        0.000001
      5438         -1.12834987        0.000001
      5439         -1.12834987        0.000001
      5440         -1.12834987        0.000001
      5441         -1.12834987        0.000001
      5442         -1.12834987        0.000001
      5443         -1.12834987        0.000001
      5444         -1.12834987        0.000001
      5445         -1.12834987        0.000001
      5446         -1.12834987        0.000001
      5447         -1.12834987        0.000001
      5448         -1.12834987        0.000001
      5449         -1.12834987        0.000001
      5450         -1.12834987        0.000001
      5451         -1.12834987        0.000001
      5452         -1.12834987        0.000001
      5453         -1.12834987        0.000001
      5454         -1.12834987        0.000001
      5455         -1.12834987        0.000001
      5456         -1.12834987        0.000001
      5457         -1.12834987        0.000001
      5458         -1.12834987        0.000001
      5459         -1.12834987        0.000001
      5460         -1.12834987        0.000001
      5461         -1.12834987        0.000001
      5462         -1.12834987        0.000001
      5463         -1.12834987        0.000001
      5464         -1.12834987        0.000001
      5465         -1.12834987        0.000001

 Reached Convergence

 WFN1                     :
 --------------------------
 Total WFN1 energy  =          -1.1283498652
 1-Electron energy  =          -2.3508602407
 2-Electron energy  =           0.6155610023
 Correlation energy =          -0.0224992549
 DFT XC energy      =           0.0000000000
 Entropy energy     =           0.0000000000
 Nuclear energy     =           0.6294486282

 conventional Hartree-Fock:
 --------------------------
 Total SCF energy  =          -1.1219980608
 2-Electron energy =           0.6219128066

                WFN1 Final Natural orbital energies and occupations
                ---------------------------------------------------

              Alpha       Beta            Alpha       Beta  
            --------    --------        --------    --------
       1      0.0000      0.0000          0.9927      0.9927
       2      0.0000      0.0000          0.0022      0.0022
       3      0.0000      0.0000          0.0014      0.0014
       4      0.0000      0.0000          0.0036      0.0036

             WFN1 Final Correlation function energies and occupations
             --------------------------------------------------------

              Alpha       Beta            Alpha       Beta  
            --------    --------        --------    --------
       1      0.0000      0.0000          1.0000      1.0000
       2      0.0000      0.0000          0.0000      0.0000
       3      0.0000      0.0000          0.0000      0.0000
       4      0.0000      0.0000          0.0000      0.0000

                WFN1 Final alpha-alpha 2-matrix occupation numbers
                --------------------------------------------------


 global array: g_momo1[1:4,1:4],  handle: -990 

            1           2           3           4  
       ----------- ----------- ----------- -----------
   1       0.00000     0.00000     0.00000     0.00000
   2       0.00000     0.00000    -0.00000     0.00000
   3      -0.00000    -0.00000    -0.00000    -0.00000
   4       0.00000     0.00000    -0.00000     0.00000

                 WFN1 Final beta-beta 2-matrix occupation numbers
                 ------------------------------------------------


 global array: g_momo2[1:4,1:4],  handle: -989 

            1           2           3           4  
       ----------- ----------- ----------- -----------
   1       0.00000     0.00000     0.00000     0.00000
   2       0.00000     0.00000    -0.00000     0.00000
   3      -0.00000    -0.00000    -0.00000    -0.00000
   4       0.00000     0.00000    -0.00000     0.00000

                  WFN1 Final alpha Correlation Function Analysis
                  ----------------------------------------------


 global array: Ca[1:4,1:4],  handle: -977 

                     1                       2                       3                       4  
       ----------------------- ----------------------- ----------------------- -----------------------
   1       0.55610,    0.82673    -0.04659,    0.00099    -0.04317,   -0.00026    -0.02412,    0.05150
   2      -0.02647,    0.03888     0.31884,    0.94504     0.04479,    0.00216    -0.00293,   -0.03194
   3      -0.00137,    0.03750     0.01583,   -0.04203     0.62003,    0.76519    -0.12364,   -0.10646
   4       0.00016,    0.06040     0.01850,   -0.02685     0.15617,   -0.04223     0.89834,   -0.40262

                   WFN1 Final beta Correlation Function Analysis
                   ---------------------------------------------


 global array: Cb[1:4,1:4],  handle: -976 

                     1                       2                       3                       4  
       ----------------------- ----------------------- ----------------------- -----------------------
   1       0.55610,    0.82673    -0.04659,    0.00099    -0.04317,   -0.00026    -0.02412,    0.05150
   2      -0.02647,    0.03888     0.31884,    0.94504     0.04479,    0.00216    -0.00293,   -0.03194
   3      -0.00137,    0.03750     0.01583,   -0.04203     0.62003,    0.76519    -0.12364,   -0.10646
   4       0.00016,    0.06040     0.01850,   -0.02685     0.15617,   -0.04223     0.89834,   -0.40262

                     WFN1 Final Alpha Natural Orbital Analysis
                     -----------------------------------------

 Vector    1  Occ=9.927308D-01  E= 0.000000D+00
              MO Center=  0.0D+00,  0.0D+00, -3.7D-07, r^2= 8.0D-01
   Bfn.  Coefficient  Atom+Function         Bfn.  Coefficient  Atom+Function  
  ----- ------------  ---------------      ----- ------------  ---------------
     1      0.312502  1 H  s                  3      0.312502  2 H  s          
     2      0.294879  1 H  s                  4      0.294877  2 H  s          

 Vector    2  Occ=2.212109D-03  E= 0.000000D+00
              MO Center=  0.0D+00,  0.0D+00, -6.5D-05, r^2= 2.7D+00
   Bfn.  Coefficient  Atom+Function         Bfn.  Coefficient  Atom+Function  
  ----- ------------  ---------------      ----- ------------  ---------------
     2      1.926505  1 H  s                  4     -1.926440  2 H  s          
     1     -0.390462  1 H  s                  3      0.390385  2 H  s          

 Vector    3  Occ=1.408457D-03  E= 0.000000D+00
              MO Center=  0.0D+00,  0.0D+00,  6.2D-05, r^2= 1.6D+00
   Bfn.  Coefficient  Atom+Function         Bfn.  Coefficient  Atom+Function  
  ----- ------------  ---------------      ----- ------------  ---------------
     1      0.808738  1 H  s                  3      0.808760  2 H  s          
     2     -0.692648  1 H  s                  4     -0.692824  2 H  s          

 Vector    4  Occ=3.648638D-03  E= 0.000000D+00
              MO Center=  0.0D+00,  0.0D+00,  3.8D-06, r^2= 4.9D-01
   Bfn.  Coefficient  Atom+Function         Bfn.  Coefficient  Atom+Function  
  ----- ------------  ---------------      ----- ------------  ---------------
     1     -0.987806  1 H  s                  3      0.987818  2 H  s          
     2      0.391324  1 H  s                  4     -0.391334  2 H  s          


                     WFN1 Final Beta Natural Orbital Analysis
                     ----------------------------------------

 Vector    1  Occ=9.927308D-01  E= 0.000000D+00
              MO Center=  0.0D+00,  0.0D+00, -3.7D-07, r^2= 8.0D-01
   Bfn.  Coefficient  Atom+Function         Bfn.  Coefficient  Atom+Function  
  ----- ------------  ---------------      ----- ------------  ---------------
     1      0.312502  1 H  s                  3      0.312502  2 H  s          
     2      0.294879  1 H  s                  4      0.294877  2 H  s          

 Vector    2  Occ=2.212109D-03  E= 0.000000D+00
              MO Center=  0.0D+00,  0.0D+00, -6.5D-05, r^2= 2.7D+00
   Bfn.  Coefficient  Atom+Function         Bfn.  Coefficient  Atom+Function  
  ----- ------------  ---------------      ----- ------------  ---------------
     2      1.926505  1 H  s                  4     -1.926440  2 H  s          
     1     -0.390462  1 H  s                  3      0.390385  2 H  s          

 Vector    3  Occ=1.408457D-03  E= 0.000000D+00
              MO Center=  0.0D+00,  0.0D+00,  6.2D-05, r^2= 1.6D+00
   Bfn.  Coefficient  Atom+Function         Bfn.  Coefficient  Atom+Function  
  ----- ------------  ---------------      ----- ------------  ---------------
     1      0.808738  1 H  s                  3      0.808760  2 H  s          
     2     -0.692648  1 H  s                  4     -0.692824  2 H  s          

 Vector    4  Occ=3.648638D-03  E= 0.000000D+00
              MO Center=  0.0D+00,  0.0D+00,  3.8D-06, r^2= 4.9D-01
   Bfn.  Coefficient  Atom+Function         Bfn.  Coefficient  Atom+Function  
  ----- ------------  ---------------      ----- ------------  ---------------
     1     -0.987806  1 H  s                  3      0.987818  2 H  s          
     2      0.391324  1 H  s                  4     -0.391334  2 H  s          


 Task  times  cpu:       98.2s     wall:      130.7s
 Summary of allocated global arrays
-----------------------------------
  No active global arrays



                         GA Statistics for process    0
                         ------------------------------

       create   destroy   get      put      acc     scatter   gather  read&inc
calls:   44       44     7.14e+07 1.46e+05 1.95e+05    0        0       11     
number of processes/call 1.00e+00 1.00e+00 1.00e+00 0.00e+00 0.00e+00
bytes total:             9.17e+09 2.49e+07 3.12e+07 0.00e+00 0.00e+00 8.80e+01
bytes remote:            0.00e+00 0.00e+00 0.00e+00 0.00e+00 0.00e+00 0.00e+00
Max memory consumed for GA by this process: 10624 bytes
MA_summarize_allocated_blocks: starting scan ...
MA_summarize_allocated_blocks: scan completed: 0 heap blocks, 0 stack blocks
MA usage statistics:

	allocation statistics:
					      heap	     stack
					      ----	     -----
	current number of blocks	         0	         0
	maximum number of blocks	        19	        17
	current total bytes		         0	         0
	maximum total bytes		   3204328	  22508616
	maximum total K-bytes		      3205	     22509
	maximum total M-bytes		         4	        23


                                NWChem Input Module
                                -------------------





                                     CITATION
                                     --------
                Please cite the following reference when publishing
                           results obtained with NWChem:

                 M. Valiev, E.J. Bylaska, N. Govind, K. Kowalski,
              T.P. Straatsma, H.J.J. van Dam, D. Wang, J. Nieplocha,
                        E. Apra, T.L. Windus, W.A. de Jong
                 "NWChem: a comprehensive and scalable open-source
                  solution for large scale molecular simulations"
                      Comput. Phys. Commun. 181, 1477 (2010)
                           doi:10.1016/j.cpc.2010.04.018

                                      AUTHORS
                                      -------
          E. Apra, E. J. Bylaska, W. A. de Jong, N. Govind, K. Kowalski,
       T. P. Straatsma, M. Valiev, H. J. J. van Dam, D. Wang, T. L. Windus,
        J. Hammond, J. Autschbach, K. Bhaskaran-Nair, J. Brabec, K. Lopata,
    S. A. Fischer, S. Krishnamoorthy, M. Jacquelin, W. Ma, M. Klemm, O. Villa,
      Y. Chen, V. Anisimov, F. Aquino, S. Hirata, M. T. Hackler, V. Konjkov,
      T. Risthaus, M. Malagoli, A. Marenich, A. Otero-de-la-Roza, J. Mullin,
        P. Nichols, R. Peverati, J. Pittner, Y. Zhao, P.-D. Fan, A. Fonari,
       M. Williamson, R. J. Harrison, J. R. Rehr, M. Dupuis, D. Silverstein,
    D. M. A. Smith, J. Nieplocha, V. Tipparaju, M. Krishnan, B. E. Van Kuiken,
        A. Vazquez-Mayagoitia, L. Jensen, M. Swart, Q. Wu, T. Van Voorhis,
     A. A. Auer, M. Nooijen, L. D. Crosby, E. Brown, G. Cisneros, G. I. Fann,
   H. Fruchtl, J. Garza, K. Hirao, R. A. Kendall, J. A. Nichols, K. Tsemekhman,
    K. Wolinski, J. Anchell, D. E. Bernholdt, P. Borowski, T. Clark, D. Clerc,
   H. Dachsel, M. J. O. Deegan, K. Dyall, D. Elwood, E. Glendening, M. Gutowski,
   A. C. Hess, J. Jaffe, B. G. Johnson, J. Ju, R. Kobayashi, R. Kutteh, Z. Lin,
   R. Littlefield, X. Long, B. Meng, T. Nakajima, S. Niu, L. Pollack, M. Rosing,
   K. Glaesemann, G. Sandrone, M. Stave, H. Taylor, G. Thomas, J. H. van Lenthe,
                               A. T. Wong, Z. Zhang.

 Total times  cpu:       98.2s     wall:      130.7s
