 argument  1 = input-wf.nw



============================== echo of input deck ==============================
echo
start wfn1_dat
geometry units au noautoz
  H 0 0 -5.14434600000000000000
  H 0 0  5.14434600000000000000
  symmetry cs
end
basis
  H library 6-31g
end
set wfn1:input_vectors "atomic"
set wfn1:solver "monte-carlo"
set wfn1:print_error F
set wfn1:t_initial 0.1
#set wfn1:corr_expr "wfn1_mx"
set wfn1:corr_expr "wfn1c"
set wfn1:t_bath 0.0
set wfn1:maxit  20000
task wfn1 energy
================================================================================


                                         
                                         


              Northwest Computational Chemistry Package (NWChem) 6.8
              ------------------------------------------------------


                    Environmental Molecular Sciences Laboratory
                       Pacific Northwest National Laboratory
                                Richland, WA 99352

                              Copyright (c) 1994-2015
                       Pacific Northwest National Laboratory
                            Battelle Memorial Institute

             NWChem is an open-source computational chemistry package
                        distributed under the terms of the
                      Educational Community License (ECL) 2.0
             A copy of the license is included with this distribution
                              in the LICENSE.TXT file

                                  ACKNOWLEDGMENT
                                  --------------

            This software and its documentation were developed at the
            EMSL at Pacific Northwest National Laboratory, a multiprogram
            national laboratory, operated for the U.S. Department of Energy
            by Battelle under Contract Number DE-AC05-76RL01830. Support
            for this work was provided by the Department of Energy Office
            of Biological and Environmental Research, Office of Basic
            Energy Sciences, and the Office of Advanced Scientific Computing.


           Job information
           ---------------

    hostname        = erato
    program         = ../../../bin/LINUX64/nwchem
    date            = Mon Mar  1 01:54:28 2021

    compiled        = Sun_Feb_28_18:02:42_2021
    source          = /home/hvandam/nwchem-1-wfn1
    nwchem branch   = Development
    nwchem revision = nwchem_on_git-124-gad72d19fff205e319ffbbf2bca37a04ded6ad57b
    ga revision     = nwchem_on_git-124-gad72d19
    use scalapack   = F
    input           = input-wf.nw
    prefix          = wfn1_dat.
    data base       = ./wfn1_dat.db
    status          = startup
    nproc           =        1
    time left       =     -1s



           Memory information
           ------------------

    heap     =   13107200 doubles =    100.0 Mbytes
    stack    =   13107197 doubles =    100.0 Mbytes
    global   =   26214400 doubles =    200.0 Mbytes (distinct from heap & stack)
    total    =   52428797 doubles =    400.0 Mbytes
    verify   = yes
    hardfail = no 


           Directory information
           ---------------------

  0 permanent = .
  0 scratch   = .




                                NWChem Input Module
                                -------------------


 Turning off AUTOSYM since
 SYMMETRY directive was detected!



                             Geometry "geometry" -> ""
                             -------------------------

 Output coordinates in a.u. (scale by  1.000000000 to convert to a.u.)

  No.       Tag          Charge          X              Y              Z
 ---- ---------------- ---------- -------------- -------------- --------------
    1 H                    1.0000     0.00000000     0.00000000    -5.14434600
    2 H                    1.0000     0.00000000     0.00000000     5.14434600

      Atomic Mass 
      ----------- 

      H                  1.007825


 Effective nuclear repulsion energy (a.u.)       0.0971940845

            Nuclear Dipole moment (a.u.) 
            ----------------------------
        X                 Y               Z
 ---------------- ---------------- ----------------
     0.0000000000     0.0000000000     0.0000000000

      Symmetry information
      --------------------

 Group name             Cs        
 Group number              2
 Group order               2
 No. of unique centers     1

      Symmetry unique atoms

     1


            XYZ format geometry
            -------------------
     2
 geometry
 H                     0.00000000     0.00000000    -2.72227086
 H                     0.00000000     0.00000000     2.72227086

                      Basis "ao basis" -> "" (cartesian)
                      -----
  H (Hydrogen)
  ------------
            Exponent  Coefficients 
       -------------- ---------------------------------------------------------
  1 S  1.87311370E+01  0.033495
  1 S  2.82539370E+00  0.234727
  1 S  6.40121700E-01  0.813757

  2 S  1.61277800E-01  1.000000



 Summary of "ao basis" -> "" (cartesian)
 ------------------------------------------------------------------------------
       Tag                 Description            Shells   Functions and Types
 ---------------- ------------------------------  ------  ---------------------
 H                           6-31g                   2        2   2s



                                NWChem WFN1 Module
                                ------------------



          No. of electrons :     2
           Alpha electrons :     1
            Beta electrons :     1
          Charge           :     0
          Spin multiplicity:     1

 HvD: wfn1_inpdft
 HvD: nquad_task =                     1
 HvD: iangquad   =                     0
 HvD: gridtype   = user      
 HvD: leb        =  T
 HvD: radgrid    = murakn    
 HvD: trunc_neigh=  T
 HvD: lssw       =  T
 HvD: whichssw   = erf1    
 HvD: mxnrad     =                     0
 HvD: mxnang     =                     0
 HVD: wfn1: movecs_in  = atomic                                                                                                                                                                                                                                                          
 HVD: wfn1: movecs_out = ./wfn1_dat.movecs                                                                                                                                                                                                                                               

      Superposition of Atomic Density Guess
      -------------------------------------

 Sum of atomic energies:          -0.99646508

      Non-variational initial energy
      ------------------------------

 Total energy =      -0.682110
 1-e energy   =      -1.190854
 2-e energy   =       0.411550
 HOMO         =      -0.191311
 LUMO         =      -0.191060

 iteration              energy           error
 ---------              ------           -----
         0         -0.86729387        0.080000
         1         -0.87437505        0.080000
         2         -0.87768526        0.080000
         3         -0.87829326        0.080000
         4         -0.88216620        0.080000
         5         -0.88517120        0.080000
         6         -0.88955166        0.080000
         7         -0.89283325        0.080000
         8         -0.89584158        0.080000
         9         -0.89693525        0.080000
        10         -0.89759834        0.080000
        11         -0.90164025        0.080000
        12         -0.90338232        0.080000
        13         -0.90593435        0.080000
        14         -0.90756473        0.080000
        15         -0.90834996        0.080000
        16         -0.91110735        0.080000
        17         -0.91158932        0.080000
        18         -0.91337196        0.080000
        19         -0.91359798        0.080000
        20         -0.91428548        0.080000
        21         -0.91684348        0.080000
        22         -0.91892441        0.080000
        23         -0.91940191        0.080000
        24         -0.92076241        0.080000
        25         -0.92338153        0.080000
        26         -0.92439175        0.080000
        27         -0.92519846        0.080000
        28         -0.92537420        0.080000
        29         -0.92658865        0.080000
        30         -0.92683516        0.080000
        31         -0.92694470        0.080000
        32         -0.92700750        0.080000
        33         -0.92722877        0.080000
        34         -0.92852721        0.080000
        35         -0.92879713        0.080000
        36         -0.92984760        0.080000
        37         -0.92991931        0.080000
        38         -0.93023620        0.080000
        39         -0.93044162        0.080000
        40         -0.93065078        0.080000
        41         -0.93096903        0.080000
        42         -0.93104114        0.080000
        43         -0.93117691        0.080000
        44         -0.93137761        0.080000
        45         -0.93138428        0.080000
        46         -0.93140095        0.050397
        47         -0.93141099        0.050397
        48         -0.93143873        0.040000
        49         -0.93144261        0.031748
        50         -0.93144519        0.031748
        51         -0.93144844        0.031748
        52         -0.93145252        0.025198
        53         -0.93145802        0.025198
        54         -0.93145936        0.015874
        55         -0.93145998        0.012599
        56         -0.93146068        0.010000
        57         -0.93146105        0.010000
        58         -0.93146201        0.010000
        59         -0.93146317        0.010000
        60         -0.93146352        0.006300
        61         -0.93146357        0.006300
        62         -0.93146365        0.006300
        63         -0.93146395        0.006300
        64         -0.93146415        0.006300
        65         -0.93146418        0.006300
        66         -0.93146422        0.006300
        67         -0.93146452        0.006300
        68         -0.93146470        0.006300
        69         -0.93146493        0.003969
        70         -0.93146504        0.003150
        71         -0.93146512        0.003150
        72         -0.93146518        0.002500
        73         -0.93146526        0.002500
        74         -0.93146527        0.001984
        75         -0.93146529        0.001984
        76         -0.93146529        0.001984
        77         -0.93146530        0.001575
        78         -0.93146530        0.001575
        79         -0.93146531        0.001575
        80         -0.93146534        0.001575
        81         -0.93146534        0.000787
        82         -0.93146535        0.000787
        83         -0.93146535        0.000787
        84         -0.93146536        0.000787
        85         -0.93146536        0.000787
        86         -0.93146537        0.000787
        87         -0.93146538        0.000787
        88         -0.93146538        0.000787
        89         -0.93146538        0.000787
        90         -0.93146539        0.000787
        91         -0.93146539        0.000625
        92         -0.93146539        0.000625
        93         -0.93146539        0.000625
        94         -0.93146539        0.000625
        95         -0.93146539        0.000625
        96         -0.93146540        0.000625
        97         -0.93146540        0.000625
        98         -0.93146540        0.000625
        99         -0.93146541        0.000625
       100         -0.93146541        0.000625
       101         -0.93146541        0.000313
       102         -0.93146541        0.000313
       103         -0.93146541        0.000313
       104         -0.93146541        0.000313
       105         -0.93146541        0.000313
       106         -0.93146541        0.000248
       107         -0.93146541        0.000248
       108         -0.93146541        0.000248
       109         -0.93146541        0.000248
       110         -0.93146541        0.000248
       111         -0.93146542        0.000248
       112         -0.93146542        0.000248
       113         -0.93146542        0.000248
       114         -0.93146542        0.000248
       115         -0.93146542        0.000197
       116         -0.93146542        0.000156
       117         -0.93146542        0.000098
       118         -0.93146542        0.000098
       119         -0.93146542        0.000098
       120         -0.93146542        0.000098
       121         -0.93146542        0.000098
       122         -0.93146542        0.000098
       123         -0.93146542        0.000078
       124         -0.93146542        0.000078
       125         -0.93146542        0.000078
       126         -0.93146542        0.000078
       127         -0.93146542        0.000049
       128         -0.93146542        0.000049
       129         -0.93146542        0.000049
       130         -0.93146542        0.000049
       131         -0.93146542        0.000049
       132         -0.93146542        0.000049
       133         -0.93146542        0.000049
       134         -0.93146542        0.000049
       135         -0.93146542        0.000049
       136         -0.93146542        0.000039
       137         -0.93146542        0.000031
       138         -0.93146542        0.000031
       139         -0.93146542        0.000031
       140         -0.93146542        0.000020
       141         -0.93146542        0.000020
       142         -0.93146542        0.000020
       143         -0.93146542        0.000020
       144         -0.93146542        0.000016
       145         -0.93146542        0.000016
       146         -0.93146542        0.000016
       147         -0.93146542        0.000016
       148         -0.93146542        0.000016
       149         -0.93146542        0.000012
       150         -0.93146542        0.000010
       151         -0.93146542        0.000010
       152         -0.93146542        0.000010
       153         -0.93146542        0.000008
       154         -0.93146542        0.000008
       155         -0.93146542        0.000008
       156         -0.93146542        0.000008
       157         -0.93146542        0.000008
       158         -0.93146542        0.000008
       159         -0.93146542        0.000008
       160         -0.93146542        0.000006
       161         -0.93146542        0.000005
       162         -0.93146542        0.000005
       163         -0.93146542        0.000005
       164         -0.93146542        0.000005
       165         -0.93146542        0.000005
       166         -0.93146542        0.000003
       167         -0.93146542        0.000002
       168         -0.93146542        0.000002
       169         -0.93146542        0.000002
       170         -0.93146542        0.000002
       171         -0.93146542        0.000001

 Reached Convergence

 WFN1                     :
 --------------------------
 Total WFN1 energy  =          -0.9314654172
 1-Electron energy  =          -1.1244116552
 2-Electron energy  =           0.3442614385
 Correlation energy =          -0.2485092850
 DFT XC energy      =           0.0000000000
 Entropy energy     =           0.0000000000
 Nuclear energy     =           0.0971940845

 conventional Hartree-Fock:
 --------------------------
 Total SCF energy  =          -0.8688102119
 2-Electron energy =           0.4069166438

                WFN1 Final Natural orbital energies and occupations
                ---------------------------------------------------

              Alpha       Beta            Alpha       Beta  
            --------    --------        --------    --------
       1      0.0000      0.0000          0.4847      0.4847
       2      0.0000      0.0000          0.4835      0.4835
       3      0.0000      0.0000          0.0160      0.0160
       4      0.0000      0.0000          0.0159      0.0159

             WFN1 Final Correlation function energies and occupations
             --------------------------------------------------------

              Alpha       Beta            Alpha       Beta  
            --------    --------        --------    --------
       1      0.0000      0.0000          1.0000      1.0000
       2      0.0000      0.0000          0.0000      0.0000
       3      0.0000      0.0000          0.0000      0.0000
       4      0.0000      0.0000          0.0000      0.0000

                WFN1 Final alpha-alpha 2-matrix occupation numbers
                --------------------------------------------------


 global array: g_momo1[1:4,1:4],  handle: -990 

            1           2           3           4  
       ----------- ----------- ----------- -----------
   1       0.00000     0.00000     0.00000     0.00000
   2       0.00000     0.00000     0.00000     0.00000
   3       0.00000     0.00000     0.00000     0.00000
   4       0.00000     0.00000     0.00000     0.00000

                 WFN1 Final beta-beta 2-matrix occupation numbers
                 ------------------------------------------------


 global array: g_momo2[1:4,1:4],  handle: -989 

            1           2           3           4  
       ----------- ----------- ----------- -----------
   1       0.00000     0.00000     0.00000     0.00000
   2       0.00000     0.00000     0.00000     0.00000
   3       0.00000     0.00000     0.00000     0.00000
   4       0.00000     0.00000     0.00000     0.00000

                  WFN1 Final alpha Correlation Function Analysis
                  ----------------------------------------------


 global array: Ca[1:4,1:4],  handle: -977 

                     1                       2                       3                       4  
       ----------------------- ----------------------- ----------------------- -----------------------
   1      -0.26406,   -0.64415    -0.27706,   -0.64913    -0.07133,   -0.08152     0.03334,   -0.06614
   2       0.67004,    0.18575    -0.67730,   -0.19340     0.07306,    0.03220    -0.05501,    0.10494
   3       0.02219,   -0.12438     0.07134,    0.00473    -0.50899,    0.46955    -0.50730,    0.49196
   4      -0.12258,    0.03011     0.01612,   -0.01908     0.30439,   -0.64008    -0.30383,    0.62352

                   WFN1 Final beta Correlation Function Analysis
                   ---------------------------------------------


 global array: Cb[1:4,1:4],  handle: -976 

                     1                       2                       3                       4  
       ----------------------- ----------------------- ----------------------- -----------------------
   1      -0.26406,   -0.64415    -0.27706,   -0.64913    -0.07133,   -0.08152     0.03334,   -0.06614
   2       0.67004,    0.18575    -0.67730,   -0.19340     0.07306,    0.03220    -0.05501,    0.10494
   3       0.02219,   -0.12438     0.07134,    0.00473    -0.50899,    0.46955    -0.50730,    0.49196
   4      -0.12258,    0.03011     0.01612,   -0.01908     0.30439,   -0.64008    -0.30383,    0.62352

                     WFN1 Final Alpha Natural Orbital Analysis
                     -----------------------------------------

 Vector    1  Occ=4.846519D-01  E= 0.000000D+00
              MO Center=  0.0D+00,  0.0D+00, -1.4D-07, r^2= 8.3D+00
   Bfn.  Coefficient  Atom+Function         Bfn.  Coefficient  Atom+Function  
  ----- ------------  ---------------      ----- ------------  ---------------
     2     -0.513963  1 H  s                  4     -0.513963  2 H  s          
     1     -0.253492  1 H  s                  3     -0.253492  2 H  s          

 Vector    2  Occ=4.834510D-01  E= 0.000000D+00
              MO Center=  0.0D+00,  0.0D+00,  1.4D-07, r^2= 8.3D+00
   Bfn.  Coefficient  Atom+Function         Bfn.  Coefficient  Atom+Function  
  ----- ------------  ---------------      ----- ------------  ---------------
     2      0.513686  1 H  s                  4     -0.513687  2 H  s          
     1      0.253898  1 H  s                  3     -0.253898  2 H  s          

 Vector    3  Occ=1.596365D-02  E= 0.000000D+00
              MO Center=  0.0D+00,  0.0D+00, -3.2D-06, r^2= 8.5D+00
   Bfn.  Coefficient  Atom+Function         Bfn.  Coefficient  Atom+Function  
  ----- ------------  ---------------      ----- ------------  ---------------
     1     -0.904427  1 H  s                  3     -0.904426  2 H  s          
     2      0.786076  1 H  s                  4      0.786075  2 H  s          

 Vector    4  Occ=1.593344D-02  E= 0.000000D+00
              MO Center=  0.0D+00,  0.0D+00,  3.2D-06, r^2= 8.5D+00
   Bfn.  Coefficient  Atom+Function         Bfn.  Coefficient  Atom+Function  
  ----- ------------  ---------------      ----- ------------  ---------------
     1     -0.904457  1 H  s                  3      0.904458  2 H  s          
     2      0.786642  1 H  s                  4     -0.786643  2 H  s          


                     WFN1 Final Beta Natural Orbital Analysis
                     ----------------------------------------

 Vector    1  Occ=4.846519D-01  E= 0.000000D+00
              MO Center=  0.0D+00,  0.0D+00, -1.4D-07, r^2= 8.3D+00
   Bfn.  Coefficient  Atom+Function         Bfn.  Coefficient  Atom+Function  
  ----- ------------  ---------------      ----- ------------  ---------------
     2     -0.513963  1 H  s                  4     -0.513963  2 H  s          
     1     -0.253492  1 H  s                  3     -0.253492  2 H  s          

 Vector    2  Occ=4.834510D-01  E= 0.000000D+00
              MO Center=  0.0D+00,  0.0D+00,  1.4D-07, r^2= 8.3D+00
   Bfn.  Coefficient  Atom+Function         Bfn.  Coefficient  Atom+Function  
  ----- ------------  ---------------      ----- ------------  ---------------
     2      0.513686  1 H  s                  4     -0.513687  2 H  s          
     1      0.253898  1 H  s                  3     -0.253898  2 H  s          

 Vector    3  Occ=1.596365D-02  E= 0.000000D+00
              MO Center=  0.0D+00,  0.0D+00, -3.2D-06, r^2= 8.5D+00
   Bfn.  Coefficient  Atom+Function         Bfn.  Coefficient  Atom+Function  
  ----- ------------  ---------------      ----- ------------  ---------------
     1     -0.904427  1 H  s                  3     -0.904426  2 H  s          
     2      0.786076  1 H  s                  4      0.786075  2 H  s          

 Vector    4  Occ=1.593344D-02  E= 0.000000D+00
              MO Center=  0.0D+00,  0.0D+00,  3.2D-06, r^2= 8.5D+00
   Bfn.  Coefficient  Atom+Function         Bfn.  Coefficient  Atom+Function  
  ----- ------------  ---------------      ----- ------------  ---------------
     1     -0.904457  1 H  s                  3      0.904458  2 H  s          
     2      0.786642  1 H  s                  4     -0.786643  2 H  s          


 Task  times  cpu:        7.7s     wall:       10.5s
 Summary of allocated global arrays
-----------------------------------
  No active global arrays



                         GA Statistics for process    0
                         ------------------------------

       create   destroy   get      put      acc     scatter   gather  read&inc
calls:   44       44     6.00e+06 1.27e+04 1.65e+04    0        0       10     
number of processes/call 1.00e+00 1.00e+00 1.00e+00 0.00e+00 0.00e+00
bytes total:             7.71e+08 2.10e+06 2.62e+06 0.00e+00 0.00e+00 8.00e+01
bytes remote:            0.00e+00 0.00e+00 0.00e+00 0.00e+00 0.00e+00 0.00e+00
Max memory consumed for GA by this process: 10624 bytes
MA_summarize_allocated_blocks: starting scan ...
MA_summarize_allocated_blocks: scan completed: 0 heap blocks, 0 stack blocks
MA usage statistics:

	allocation statistics:
					      heap	     stack
					      ----	     -----
	current number of blocks	         0	         0
	maximum number of blocks	        19	        17
	current total bytes		         0	         0
	maximum total bytes		   3204328	  22508616
	maximum total K-bytes		      3205	     22509
	maximum total M-bytes		         4	        23


                                NWChem Input Module
                                -------------------





                                     CITATION
                                     --------
                Please cite the following reference when publishing
                           results obtained with NWChem:

                 M. Valiev, E.J. Bylaska, N. Govind, K. Kowalski,
              T.P. Straatsma, H.J.J. van Dam, D. Wang, J. Nieplocha,
                        E. Apra, T.L. Windus, W.A. de Jong
                 "NWChem: a comprehensive and scalable open-source
                  solution for large scale molecular simulations"
                      Comput. Phys. Commun. 181, 1477 (2010)
                           doi:10.1016/j.cpc.2010.04.018

                                      AUTHORS
                                      -------
          E. Apra, E. J. Bylaska, W. A. de Jong, N. Govind, K. Kowalski,
       T. P. Straatsma, M. Valiev, H. J. J. van Dam, D. Wang, T. L. Windus,
        J. Hammond, J. Autschbach, K. Bhaskaran-Nair, J. Brabec, K. Lopata,
    S. A. Fischer, S. Krishnamoorthy, M. Jacquelin, W. Ma, M. Klemm, O. Villa,
      Y. Chen, V. Anisimov, F. Aquino, S. Hirata, M. T. Hackler, V. Konjkov,
      T. Risthaus, M. Malagoli, A. Marenich, A. Otero-de-la-Roza, J. Mullin,
        P. Nichols, R. Peverati, J. Pittner, Y. Zhao, P.-D. Fan, A. Fonari,
       M. Williamson, R. J. Harrison, J. R. Rehr, M. Dupuis, D. Silverstein,
    D. M. A. Smith, J. Nieplocha, V. Tipparaju, M. Krishnan, B. E. Van Kuiken,
        A. Vazquez-Mayagoitia, L. Jensen, M. Swart, Q. Wu, T. Van Voorhis,
     A. A. Auer, M. Nooijen, L. D. Crosby, E. Brown, G. Cisneros, G. I. Fann,
   H. Fruchtl, J. Garza, K. Hirao, R. A. Kendall, J. A. Nichols, K. Tsemekhman,
    K. Wolinski, J. Anchell, D. E. Bernholdt, P. Borowski, T. Clark, D. Clerc,
   H. Dachsel, M. J. O. Deegan, K. Dyall, D. Elwood, E. Glendening, M. Gutowski,
   A. C. Hess, J. Jaffe, B. G. Johnson, J. Ju, R. Kobayashi, R. Kutteh, Z. Lin,
   R. Littlefield, X. Long, B. Meng, T. Nakajima, S. Niu, L. Pollack, M. Rosing,
   K. Glaesemann, G. Sandrone, M. Stave, H. Taylor, G. Thomas, J. H. van Lenthe,
                               A. T. Wong, Z. Zhang.

 Total times  cpu:        7.7s     wall:       10.5s
