 argument  1 = input-wf.nw



============================== echo of input deck ==============================
echo
start wfn1_dat
geometry units au noautoz
  H 0 0 -2.59434600000000000000
  H 0 0  2.59434600000000000000
  symmetry cs
end
basis
  H library 6-31g
end
set wfn1:input_vectors "atomic"
set wfn1:solver "monte-carlo"
set wfn1:print_error F
set wfn1:t_initial 0.1
#set wfn1:corr_expr "wfn1_mx"
set wfn1:corr_expr "wfn1c"
set wfn1:t_bath 0.0
set wfn1:maxit  20000
task wfn1 energy
================================================================================


                                         
                                         


              Northwest Computational Chemistry Package (NWChem) 6.8
              ------------------------------------------------------


                    Environmental Molecular Sciences Laboratory
                       Pacific Northwest National Laboratory
                                Richland, WA 99352

                              Copyright (c) 1994-2015
                       Pacific Northwest National Laboratory
                            Battelle Memorial Institute

             NWChem is an open-source computational chemistry package
                        distributed under the terms of the
                      Educational Community License (ECL) 2.0
             A copy of the license is included with this distribution
                              in the LICENSE.TXT file

                                  ACKNOWLEDGMENT
                                  --------------

            This software and its documentation were developed at the
            EMSL at Pacific Northwest National Laboratory, a multiprogram
            national laboratory, operated for the U.S. Department of Energy
            by Battelle under Contract Number DE-AC05-76RL01830. Support
            for this work was provided by the Department of Energy Office
            of Biological and Environmental Research, Office of Basic
            Energy Sciences, and the Office of Advanced Scientific Computing.


           Job information
           ---------------

    hostname        = erato
    program         = ../../../bin/LINUX64/nwchem
    date            = Mon Mar  1 01:41:50 2021

    compiled        = Sun_Feb_28_18:02:42_2021
    source          = /home/hvandam/nwchem-1-wfn1
    nwchem branch   = Development
    nwchem revision = nwchem_on_git-124-gad72d19fff205e319ffbbf2bca37a04ded6ad57b
    ga revision     = nwchem_on_git-124-gad72d19
    use scalapack   = F
    input           = input-wf.nw
    prefix          = wfn1_dat.
    data base       = ./wfn1_dat.db
    status          = startup
    nproc           =        1
    time left       =     -1s



           Memory information
           ------------------

    heap     =   13107200 doubles =    100.0 Mbytes
    stack    =   13107197 doubles =    100.0 Mbytes
    global   =   26214400 doubles =    200.0 Mbytes (distinct from heap & stack)
    total    =   52428797 doubles =    400.0 Mbytes
    verify   = yes
    hardfail = no 


           Directory information
           ---------------------

  0 permanent = .
  0 scratch   = .




                                NWChem Input Module
                                -------------------


 Turning off AUTOSYM since
 SYMMETRY directive was detected!



                             Geometry "geometry" -> ""
                             -------------------------

 Output coordinates in a.u. (scale by  1.000000000 to convert to a.u.)

  No.       Tag          Charge          X              Y              Z
 ---- ---------------- ---------- -------------- -------------- --------------
    1 H                    1.0000     0.00000000     0.00000000    -2.59434600
    2 H                    1.0000     0.00000000     0.00000000     2.59434600

      Atomic Mass 
      ----------- 

      H                  1.007825


 Effective nuclear repulsion energy (a.u.)       0.1927267990

            Nuclear Dipole moment (a.u.) 
            ----------------------------
        X                 Y               Z
 ---------------- ---------------- ----------------
     0.0000000000     0.0000000000     0.0000000000

      Symmetry information
      --------------------

 Group name             Cs        
 Group number              2
 Group order               2
 No. of unique centers     1

      Symmetry unique atoms

     1


            XYZ format geometry
            -------------------
     2
 geometry
 H                     0.00000000     0.00000000    -1.37286888
 H                     0.00000000     0.00000000     1.37286888

                      Basis "ao basis" -> "" (cartesian)
                      -----
  H (Hydrogen)
  ------------
            Exponent  Coefficients 
       -------------- ---------------------------------------------------------
  1 S  1.87311370E+01  0.033495
  1 S  2.82539370E+00  0.234727
  1 S  6.40121700E-01  0.813757

  2 S  1.61277800E-01  1.000000



 Summary of "ao basis" -> "" (cartesian)
 ------------------------------------------------------------------------------
       Tag                 Description            Shells   Functions and Types
 ---------------- ------------------------------  ------  ---------------------
 H                           6-31g                   2        2   2s



                                NWChem WFN1 Module
                                ------------------



          No. of electrons :     2
           Alpha electrons :     1
            Beta electrons :     1
          Charge           :     0
          Spin multiplicity:     1

 HvD: wfn1_inpdft
 HvD: nquad_task =                     1
 HvD: iangquad   =                     0
 HvD: gridtype   = user      
 HvD: leb        =  T
 HvD: radgrid    = murakn    
 HvD: trunc_neigh=  T
 HvD: lssw       =  T
 HvD: whichssw   = erf1    
 HvD: mxnrad     =                     0
 HvD: mxnang     =                     0
 HVD: wfn1: movecs_in  = atomic                                                                                                                                                                                                                                                          
 HVD: wfn1: movecs_out = ./wfn1_dat.movecs                                                                                                                                                                                                                                               

      Superposition of Atomic Density Guess
      -------------------------------------

 Sum of atomic energies:          -0.99646508

      Non-variational initial energy
      ------------------------------

 Total energy =      -0.683119
 1-e energy   =      -1.381914
 2-e energy   =       0.506069
 HOMO         =      -0.218193
 LUMO         =      -0.162502

 iteration              energy           error
 ---------              ------           -----
         0         -0.89682630        0.080000
         1         -0.89953435        0.080000
         2         -0.90140632        0.080000
         3         -0.90598364        0.080000
         4         -0.90982032        0.080000
         5         -0.91188728        0.080000
         6         -0.91343896        0.080000
         7         -0.91448349        0.080000
         8         -0.91791727        0.080000
         9         -0.92132024        0.080000
        10         -0.92540670        0.080000
        11         -0.92645433        0.080000
        12         -0.92972239        0.080000
        13         -0.93276372        0.080000
        14         -0.93681283        0.080000
        15         -0.94072639        0.080000
        16         -0.94204865        0.080000
        17         -0.94504605        0.080000
        18         -0.94697157        0.080000
        19         -0.94789540        0.080000
        20         -0.95006213        0.080000
        21         -0.95309447        0.080000
        22         -0.95528465        0.080000
        23         -0.95621897        0.080000
        24         -0.95628289        0.080000
        25         -0.95663680        0.080000
        26         -0.95731060        0.080000
        27         -0.95851484        0.080000
        28         -0.95889024        0.080000
        29         -0.95899562        0.080000
        30         -0.95948776        0.080000
        31         -0.96098933        0.080000
        32         -0.96120149        0.080000
        33         -0.96176722        0.080000
        34         -0.96186517        0.080000
        35         -0.96190095        0.080000
        36         -0.96240544        0.080000
        37         -0.96246055        0.080000
        38         -0.96269534        0.080000
        39         -0.96286301        0.080000
        40         -0.96290282        0.080000
        41         -0.96291968        0.080000
        42         -0.96305807        0.080000
        43         -0.96313441        0.080000
        44         -0.96322301        0.080000
        45         -0.96328883        0.063496
        46         -0.96330115        0.050397
        47         -0.96332334        0.050397
        48         -0.96332629        0.050397
        49         -0.96335457        0.050397
        50         -0.96335812        0.050397
        51         -0.96336420        0.050397
        52         -0.96337238        0.050397
        53         -0.96337547        0.040000
        54         -0.96340421        0.040000
        55         -0.96341280        0.031748
        56         -0.96342116        0.031748
        57         -0.96343179        0.031748
        58         -0.96343687        0.031748
        59         -0.96343695        0.025198
        60         -0.96343875        0.025198
        61         -0.96344127        0.015874
        62         -0.96344658        0.015874
        63         -0.96344695        0.015874
        64         -0.96344706        0.012599
        65         -0.96344712        0.007937
        66         -0.96344739        0.006300
        67         -0.96344824        0.006300
        68         -0.96345011        0.006300
        69         -0.96345060        0.006300
        70         -0.96345134        0.006300
        71         -0.96345141        0.006300
        72         -0.96345202        0.005000
        73         -0.96345218        0.005000
        74         -0.96345234        0.005000
        75         -0.96345249        0.005000
        76         -0.96345260        0.005000
        77         -0.96345266        0.003969
        78         -0.96345275        0.003969
        79         -0.96345301        0.003969
        80         -0.96345308        0.003150
        81         -0.96345308        0.002500
        82         -0.96345311        0.002500
        83         -0.96345313        0.002500
        84         -0.96345323        0.002500
        85         -0.96345324        0.001984
        86         -0.96345328        0.001984
        87         -0.96345333        0.001984
        88         -0.96345333        0.001984
        89         -0.96345333        0.001984
        90         -0.96345334        0.001575
        91         -0.96345334        0.001575
        92         -0.96345335        0.001575
        93         -0.96345338        0.001250
        94         -0.96345340        0.000992
        95         -0.96345341        0.000787
        96         -0.96345341        0.000625
        97         -0.96345341        0.000625
        98         -0.96345341        0.000394
        99         -0.96345341        0.000394
       100         -0.96345342        0.000394
       101         -0.96345342        0.000394
       102         -0.96345342        0.000394
       103         -0.96345343        0.000394
       104         -0.96345343        0.000394
       105         -0.96345343        0.000394
       106         -0.96345343        0.000394
       107         -0.96345344        0.000394
       108         -0.96345344        0.000394
       109         -0.96345344        0.000394
       110         -0.96345345        0.000313
       111         -0.96345345        0.000313
       112         -0.96345345        0.000313
       113         -0.96345345        0.000313
       114         -0.96345345        0.000313
       115         -0.96345345        0.000313
       116         -0.96345345        0.000248
       117         -0.96345345        0.000248
       118         -0.96345345        0.000248
       119         -0.96345345        0.000248
       120         -0.96345345        0.000248
       121         -0.96345345        0.000248
       122         -0.96345345        0.000248
       123         -0.96345346        0.000248
       124         -0.96345346        0.000248
       125         -0.96345346        0.000248
       126         -0.96345346        0.000124
       127         -0.96345346        0.000124
       128         -0.96345346        0.000124
       129         -0.96345346        0.000124
       130         -0.96345346        0.000124
       131         -0.96345346        0.000124
       132         -0.96345346        0.000124
       133         -0.96345346        0.000124
       134         -0.96345346        0.000124
       135         -0.96345346        0.000124
       136         -0.96345346        0.000124
       137         -0.96345346        0.000124
       138         -0.96345346        0.000124
       139         -0.96345346        0.000124
       140         -0.96345346        0.000124
       141         -0.96345346        0.000124
       142         -0.96345346        0.000124
       143         -0.96345346        0.000124
       144         -0.96345346        0.000098
       145         -0.96345346        0.000098
       146         -0.96345346        0.000098
       147         -0.96345346        0.000098
       148         -0.96345346        0.000098
       149         -0.96345346        0.000098
       150         -0.96345346        0.000098
       151         -0.96345346        0.000098
       152         -0.96345346        0.000098
       153         -0.96345346        0.000098
       154         -0.96345346        0.000098
       155         -0.96345346        0.000098
       156         -0.96345346        0.000078
       157         -0.96345346        0.000078
       158         -0.96345346        0.000062
       159         -0.96345346        0.000062
       160         -0.96345346        0.000062
       161         -0.96345346        0.000062
       162         -0.96345346        0.000062
       163         -0.96345346        0.000062
       164         -0.96345346        0.000062
       165         -0.96345346        0.000039
       166         -0.96345346        0.000039
       167         -0.96345346        0.000031
       168         -0.96345346        0.000031
       169         -0.96345346        0.000031
       170         -0.96345346        0.000031
       171         -0.96345346        0.000031
       172         -0.96345346        0.000025
       173         -0.96345346        0.000025
       174         -0.96345346        0.000020
       175         -0.96345346        0.000020
       176         -0.96345346        0.000016
       177         -0.96345346        0.000016
       178         -0.96345346        0.000016
       179         -0.96345346        0.000012
       180         -0.96345346        0.000012
       181         -0.96345346        0.000012
       182         -0.96345346        0.000012
       183         -0.96345346        0.000012
       184         -0.96345346        0.000012
       185         -0.96345346        0.000012
       186         -0.96345346        0.000012
       187         -0.96345346        0.000012
       188         -0.96345346        0.000012
       189         -0.96345346        0.000010
       190         -0.96345346        0.000010
       191         -0.96345346        0.000010
       192         -0.96345346        0.000010
       193         -0.96345346        0.000008
       194         -0.96345346        0.000008
       195         -0.96345346        0.000008
       196         -0.96345346        0.000008
       197         -0.96345346        0.000008
       198         -0.96345346        0.000006
       199         -0.96345346        0.000006
       200         -0.96345346        0.000006
       201         -0.96345346        0.000005
       202         -0.96345346        0.000005
       203         -0.96345346        0.000005
       204         -0.96345346        0.000005
       205         -0.96345346        0.000002
       206         -0.96345346        0.000002
       207         -0.96345346        0.000002
       208         -0.96345346        0.000002
       209         -0.96345346        0.000002
       210         -0.96345346        0.000002
       211         -0.96345346        0.000002
       212         -0.96345346        0.000002
       213         -0.96345346        0.000002
       214         -0.96345346        0.000002
       215         -0.96345346        0.000002
       216         -0.96345346        0.000001
       217         -0.96345346        0.000001
       218         -0.96345346        0.000001
       219         -0.96345346        0.000001
       220         -0.96345346        0.000001

 Reached Convergence

 WFN1                     :
 --------------------------
 Total WFN1 energy  =          -0.9634534626
 1-Electron energy  =          -1.3184900409
 2-Electron energy  =           0.3910841259
 Correlation energy =          -0.2287743466
 DFT XC energy      =           0.0000000000
 Entropy energy     =           0.0000000000
 Nuclear energy     =           0.1927267990

 conventional Hartree-Fock:
 --------------------------
 Total SCF energy  =          -0.8575582648
 2-Electron energy =           0.4969793237

                WFN1 Final Natural orbital energies and occupations
                ---------------------------------------------------

              Alpha       Beta            Alpha       Beta  
            --------    --------        --------    --------
       1      0.0000      0.0000          0.5936      0.5936
       2      0.0000      0.0000          0.3732      0.3732
       3      0.0000      0.0000          0.0189      0.0189
       4      0.0000      0.0000          0.0144      0.0144

             WFN1 Final Correlation function energies and occupations
             --------------------------------------------------------

              Alpha       Beta            Alpha       Beta  
            --------    --------        --------    --------
       1      0.0000      0.0000          1.0000      1.0000
       2      0.0000      0.0000          0.0000      0.0000
       3      0.0000      0.0000          0.0000      0.0000
       4      0.0000      0.0000          0.0000      0.0000

                WFN1 Final alpha-alpha 2-matrix occupation numbers
                --------------------------------------------------


 global array: g_momo1[1:4,1:4],  handle: -990 

            1           2           3           4  
       ----------- ----------- ----------- -----------
   1       0.00000     0.00000    -0.00000     0.00000
   2       0.00000    -0.00000    -0.00000     0.00000
   3       0.00000    -0.00000    -0.00000     0.00000
   4       0.00000    -0.00000     0.00000     0.00000

                 WFN1 Final beta-beta 2-matrix occupation numbers
                 ------------------------------------------------


 global array: g_momo2[1:4,1:4],  handle: -989 

            1           2           3           4  
       ----------- ----------- ----------- -----------
   1       0.00000     0.00000    -0.00000     0.00000
   2       0.00000    -0.00000    -0.00000     0.00000
   3       0.00000    -0.00000    -0.00000     0.00000
   4       0.00000    -0.00000     0.00000     0.00000

                  WFN1 Final alpha Correlation Function Analysis
                  ----------------------------------------------


 global array: Ca[1:4,1:4],  handle: -981 

                     1                       2                       3                       4  
       ----------------------- ----------------------- ----------------------- -----------------------
   1      -0.44837,    0.62652    -0.34614,    0.49667    -0.07738,    0.02221     0.18262,    0.01088
   2      -0.49795,    0.35392     0.64152,   -0.45815    -0.01272,    0.04495     0.01106,    0.05511
   3       0.00068,   -0.13730    -0.01607,   -0.08764    -0.60745,    0.58710     0.37249,   -0.34752
   4      -0.09832,   -0.06865     0.01155,   -0.06315     0.22823,   -0.47493     0.38662,   -0.74456

                   WFN1 Final beta Correlation Function Analysis
                   ---------------------------------------------


 global array: Cb[1:4,1:4],  handle: -980 

                     1                       2                       3                       4  
       ----------------------- ----------------------- ----------------------- -----------------------
   1      -0.44837,    0.62652    -0.34614,    0.49667    -0.07738,    0.02221     0.18262,    0.01088
   2      -0.49795,    0.35392     0.64152,   -0.45815    -0.01272,    0.04495     0.01106,    0.05511
   3       0.00068,   -0.13730    -0.01607,   -0.08764    -0.60745,    0.58710     0.37249,   -0.34752
   4      -0.09832,   -0.06865     0.01155,   -0.06315     0.22823,   -0.47493     0.38662,   -0.74456

                     WFN1 Final Alpha Natural Orbital Analysis
                     -----------------------------------------

 Vector    1  Occ=5.935615D-01  E= 0.000000D+00
              MO Center=  0.0D+00,  0.0D+00, -1.9D-07, r^2= 2.7D+00
   Bfn.  Coefficient  Atom+Function         Bfn.  Coefficient  Atom+Function  
  ----- ------------  ---------------      ----- ------------  ---------------
     2     -0.505564  1 H  s                  4     -0.505564  2 H  s          
     1     -0.234120  1 H  s                  3     -0.234120  2 H  s          

 Vector    2  Occ=3.732095D-01  E= 0.000000D+00
              MO Center=  0.0D+00,  0.0D+00,  2.3D-07, r^2= 2.8D+00
   Bfn.  Coefficient  Atom+Function         Bfn.  Coefficient  Atom+Function  
  ----- ------------  ---------------      ----- ------------  ---------------
     2      0.516744  1 H  s                  4     -0.516744  2 H  s          
     1      0.280138  1 H  s                  3     -0.280138  2 H  s          

 Vector    3  Occ=1.885051D-02  E= 0.000000D+00
              MO Center=  0.0D+00,  0.0D+00,  1.5D-06, r^2= 2.8D+00
   Bfn.  Coefficient  Atom+Function         Bfn.  Coefficient  Atom+Function  
  ----- ------------  ---------------      ----- ------------  ---------------
     1      0.892048  1 H  s                  3      0.892049  2 H  s          
     2     -0.712723  1 H  s                  4     -0.712724  2 H  s          

 Vector    4  Occ=1.437851D-02  E= 0.000000D+00
              MO Center=  0.0D+00,  0.0D+00, -1.6D-06, r^2= 3.4D+00
   Bfn.  Coefficient  Atom+Function         Bfn.  Coefficient  Atom+Function  
  ----- ------------  ---------------      ----- ------------  ---------------
     1     -0.921336  1 H  s                  3      0.921335  2 H  s          
     2      0.882939  1 H  s                  4     -0.882938  2 H  s          


                     WFN1 Final Beta Natural Orbital Analysis
                     ----------------------------------------

 Vector    1  Occ=5.935615D-01  E= 0.000000D+00
              MO Center=  0.0D+00,  0.0D+00, -1.9D-07, r^2= 2.7D+00
   Bfn.  Coefficient  Atom+Function         Bfn.  Coefficient  Atom+Function  
  ----- ------------  ---------------      ----- ------------  ---------------
     2     -0.505564  1 H  s                  4     -0.505564  2 H  s          
     1     -0.234120  1 H  s                  3     -0.234120  2 H  s          

 Vector    2  Occ=3.732095D-01  E= 0.000000D+00
              MO Center=  0.0D+00,  0.0D+00,  2.3D-07, r^2= 2.8D+00
   Bfn.  Coefficient  Atom+Function         Bfn.  Coefficient  Atom+Function  
  ----- ------------  ---------------      ----- ------------  ---------------
     2      0.516744  1 H  s                  4     -0.516744  2 H  s          
     1      0.280138  1 H  s                  3     -0.280138  2 H  s          

 Vector    3  Occ=1.885051D-02  E= 0.000000D+00
              MO Center=  0.0D+00,  0.0D+00,  1.5D-06, r^2= 2.8D+00
   Bfn.  Coefficient  Atom+Function         Bfn.  Coefficient  Atom+Function  
  ----- ------------  ---------------      ----- ------------  ---------------
     1      0.892048  1 H  s                  3      0.892049  2 H  s          
     2     -0.712723  1 H  s                  4     -0.712724  2 H  s          

 Vector    4  Occ=1.437851D-02  E= 0.000000D+00
              MO Center=  0.0D+00,  0.0D+00, -1.6D-06, r^2= 3.4D+00
   Bfn.  Coefficient  Atom+Function         Bfn.  Coefficient  Atom+Function  
  ----- ------------  ---------------      ----- ------------  ---------------
     1     -0.921336  1 H  s                  3      0.921335  2 H  s          
     2      0.882939  1 H  s                  4     -0.882938  2 H  s          


 Task  times  cpu:       12.7s     wall:       19.0s
 Summary of allocated global arrays
-----------------------------------
  No active global arrays



                         GA Statistics for process    0
                         ------------------------------

       create   destroy   get      put      acc     scatter   gather  read&inc
calls:   44       44     7.25e+06 1.52e+04 1.99e+04    0        0       11     
number of processes/call 1.00e+00 1.00e+00 1.00e+00 0.00e+00 0.00e+00
bytes total:             9.31e+08 2.54e+06 3.17e+06 0.00e+00 0.00e+00 8.80e+01
bytes remote:            0.00e+00 0.00e+00 0.00e+00 0.00e+00 0.00e+00 0.00e+00
Max memory consumed for GA by this process: 10624 bytes
MA_summarize_allocated_blocks: starting scan ...
MA_summarize_allocated_blocks: scan completed: 0 heap blocks, 0 stack blocks
MA usage statistics:

	allocation statistics:
					      heap	     stack
					      ----	     -----
	current number of blocks	         0	         0
	maximum number of blocks	        19	        17
	current total bytes		         0	         0
	maximum total bytes		   3204328	  22508616
	maximum total K-bytes		      3205	     22509
	maximum total M-bytes		         4	        23


                                NWChem Input Module
                                -------------------





                                     CITATION
                                     --------
                Please cite the following reference when publishing
                           results obtained with NWChem:

                 M. Valiev, E.J. Bylaska, N. Govind, K. Kowalski,
              T.P. Straatsma, H.J.J. van Dam, D. Wang, J. Nieplocha,
                        E. Apra, T.L. Windus, W.A. de Jong
                 "NWChem: a comprehensive and scalable open-source
                  solution for large scale molecular simulations"
                      Comput. Phys. Commun. 181, 1477 (2010)
                           doi:10.1016/j.cpc.2010.04.018

                                      AUTHORS
                                      -------
          E. Apra, E. J. Bylaska, W. A. de Jong, N. Govind, K. Kowalski,
       T. P. Straatsma, M. Valiev, H. J. J. van Dam, D. Wang, T. L. Windus,
        J. Hammond, J. Autschbach, K. Bhaskaran-Nair, J. Brabec, K. Lopata,
    S. A. Fischer, S. Krishnamoorthy, M. Jacquelin, W. Ma, M. Klemm, O. Villa,
      Y. Chen, V. Anisimov, F. Aquino, S. Hirata, M. T. Hackler, V. Konjkov,
      T. Risthaus, M. Malagoli, A. Marenich, A. Otero-de-la-Roza, J. Mullin,
        P. Nichols, R. Peverati, J. Pittner, Y. Zhao, P.-D. Fan, A. Fonari,
       M. Williamson, R. J. Harrison, J. R. Rehr, M. Dupuis, D. Silverstein,
    D. M. A. Smith, J. Nieplocha, V. Tipparaju, M. Krishnan, B. E. Van Kuiken,
        A. Vazquez-Mayagoitia, L. Jensen, M. Swart, Q. Wu, T. Van Voorhis,
     A. A. Auer, M. Nooijen, L. D. Crosby, E. Brown, G. Cisneros, G. I. Fann,
   H. Fruchtl, J. Garza, K. Hirao, R. A. Kendall, J. A. Nichols, K. Tsemekhman,
    K. Wolinski, J. Anchell, D. E. Bernholdt, P. Borowski, T. Clark, D. Clerc,
   H. Dachsel, M. J. O. Deegan, K. Dyall, D. Elwood, E. Glendening, M. Gutowski,
   A. C. Hess, J. Jaffe, B. G. Johnson, J. Ju, R. Kobayashi, R. Kutteh, Z. Lin,
   R. Littlefield, X. Long, B. Meng, T. Nakajima, S. Niu, L. Pollack, M. Rosing,
   K. Glaesemann, G. Sandrone, M. Stave, H. Taylor, G. Thomas, J. H. van Lenthe,
                               A. T. Wong, Z. Zhang.

 Total times  cpu:       12.7s     wall:       19.1s
