 argument  1 = input-wf.nw



============================== echo of input deck ==============================
echo
start wfn1_dat
geometry units au noautoz
  H 0 0 -2.99434600000000000000
  H 0 0  2.99434600000000000000
  symmetry cs
end
basis
  H library 6-31g
end
set wfn1:input_vectors "atomic"
set wfn1:solver "monte-carlo"
set wfn1:print_error F
set wfn1:t_initial 0.1
#set wfn1:corr_expr "wfn1_mx"
set wfn1:corr_expr "wfn1c"
set wfn1:t_bath 0.0
set wfn1:maxit  20000
task wfn1 energy
================================================================================


                                         
                                         


              Northwest Computational Chemistry Package (NWChem) 6.8
              ------------------------------------------------------


                    Environmental Molecular Sciences Laboratory
                       Pacific Northwest National Laboratory
                                Richland, WA 99352

                              Copyright (c) 1994-2015
                       Pacific Northwest National Laboratory
                            Battelle Memorial Institute

             NWChem is an open-source computational chemistry package
                        distributed under the terms of the
                      Educational Community License (ECL) 2.0
             A copy of the license is included with this distribution
                              in the LICENSE.TXT file

                                  ACKNOWLEDGMENT
                                  --------------

            This software and its documentation were developed at the
            EMSL at Pacific Northwest National Laboratory, a multiprogram
            national laboratory, operated for the U.S. Department of Energy
            by Battelle under Contract Number DE-AC05-76RL01830. Support
            for this work was provided by the Department of Energy Office
            of Biological and Environmental Research, Office of Basic
            Energy Sciences, and the Office of Advanced Scientific Computing.


           Job information
           ---------------

    hostname        = erato
    program         = ../../../bin/LINUX64/nwchem
    date            = Mon Mar  1 01:44:11 2021

    compiled        = Sun_Feb_28_18:02:42_2021
    source          = /home/hvandam/nwchem-1-wfn1
    nwchem branch   = Development
    nwchem revision = nwchem_on_git-124-gad72d19fff205e319ffbbf2bca37a04ded6ad57b
    ga revision     = nwchem_on_git-124-gad72d19
    use scalapack   = F
    input           = input-wf.nw
    prefix          = wfn1_dat.
    data base       = ./wfn1_dat.db
    status          = startup
    nproc           =        1
    time left       =     -1s



           Memory information
           ------------------

    heap     =   13107200 doubles =    100.0 Mbytes
    stack    =   13107197 doubles =    100.0 Mbytes
    global   =   26214400 doubles =    200.0 Mbytes (distinct from heap & stack)
    total    =   52428797 doubles =    400.0 Mbytes
    verify   = yes
    hardfail = no 


           Directory information
           ---------------------

  0 permanent = .
  0 scratch   = .




                                NWChem Input Module
                                -------------------


 Turning off AUTOSYM since
 SYMMETRY directive was detected!



                             Geometry "geometry" -> ""
                             -------------------------

 Output coordinates in a.u. (scale by  1.000000000 to convert to a.u.)

  No.       Tag          Charge          X              Y              Z
 ---- ---------------- ---------- -------------- -------------- --------------
    1 H                    1.0000     0.00000000     0.00000000    -2.99434600
    2 H                    1.0000     0.00000000     0.00000000     2.99434600

      Atomic Mass 
      ----------- 

      H                  1.007825


 Effective nuclear repulsion energy (a.u.)       0.1669813709

            Nuclear Dipole moment (a.u.) 
            ----------------------------
        X                 Y               Z
 ---------------- ---------------- ----------------
     0.0000000000     0.0000000000     0.0000000000

      Symmetry information
      --------------------

 Group name             Cs        
 Group number              2
 Group order               2
 No. of unique centers     1

      Symmetry unique atoms

     1


            XYZ format geometry
            -------------------
     2
 geometry
 H                     0.00000000     0.00000000    -1.58453978
 H                     0.00000000     0.00000000     1.58453978

                      Basis "ao basis" -> "" (cartesian)
                      -----
  H (Hydrogen)
  ------------
            Exponent  Coefficients 
       -------------- ---------------------------------------------------------
  1 S  1.87311370E+01  0.033495
  1 S  2.82539370E+00  0.234727
  1 S  6.40121700E-01  0.813757

  2 S  1.61277800E-01  1.000000



 Summary of "ao basis" -> "" (cartesian)
 ------------------------------------------------------------------------------
       Tag                 Description            Shells   Functions and Types
 ---------------- ------------------------------  ------  ---------------------
 H                           6-31g                   2        2   2s



                                NWChem WFN1 Module
                                ------------------



          No. of electrons :     2
           Alpha electrons :     1
            Beta electrons :     1
          Charge           :     0
          Spin multiplicity:     1

 HvD: wfn1_inpdft
 HvD: nquad_task =                     1
 HvD: iangquad   =                     0
 HvD: gridtype   = user      
 HvD: leb        =  T
 HvD: radgrid    = murakn    
 HvD: trunc_neigh=  T
 HvD: lssw       =  T
 HvD: whichssw   = erf1    
 HvD: mxnrad     =                     0
 HvD: mxnang     =                     0
 HVD: wfn1: movecs_in  = atomic                                                                                                                                                                                                                                                          
 HVD: wfn1: movecs_out = ./wfn1_dat.movecs                                                                                                                                                                                                                                               

      Superposition of Atomic Density Guess
      -------------------------------------

 Sum of atomic energies:          -0.99646508

      Non-variational initial energy
      ------------------------------

 Total energy =      -0.682310
 1-e energy   =      -1.330428
 2-e energy   =       0.481137
 HOMO         =      -0.205491
 LUMO         =      -0.176427

 iteration              energy           error
 ---------              ------           -----
         0         -0.88659398        0.080000
         1         -0.89275062        0.080000
         2         -0.90049769        0.080000
         3         -0.90219893        0.080000
         4         -0.90293744        0.080000
         5         -0.90627114        0.080000
         6         -0.90700884        0.080000
         7         -0.91185320        0.080000
         8         -0.91567740        0.080000
         9         -0.91698270        0.080000
        10         -0.91788202        0.080000
        11         -0.92086292        0.080000
        12         -0.92573106        0.080000
        13         -0.92614902        0.080000
        14         -0.92979334        0.080000
        15         -0.93080348        0.080000
        16         -0.93117958        0.080000
        17         -0.93329826        0.080000
        18         -0.93497661        0.080000
        19         -0.93662173        0.080000
        20         -0.93768565        0.080000
        21         -0.94155249        0.080000
        22         -0.94318686        0.080000
        23         -0.94362400        0.080000
        24         -0.94463358        0.080000
        25         -0.94502635        0.080000
        26         -0.94675035        0.080000
        27         -0.94758790        0.080000
        28         -0.94852894        0.080000
        29         -0.94893668        0.080000
        30         -0.95060013        0.080000
        31         -0.95089101        0.080000
        32         -0.95121538        0.080000
        33         -0.95159435        0.080000
        34         -0.95179098        0.080000
        35         -0.95246339        0.080000
        36         -0.95279126        0.080000
        37         -0.95298370        0.080000
        38         -0.95322083        0.080000
        39         -0.95327338        0.080000
        40         -0.95334550        0.080000
        41         -0.95339074        0.080000
        42         -0.95339910        0.080000
        43         -0.95353418        0.080000
        44         -0.95354945        0.080000
        45         -0.95357701        0.080000
        46         -0.95365912        0.080000
        47         -0.95387162        0.080000
        48         -0.95393758        0.080000
        49         -0.95395158        0.080000
        50         -0.95404692        0.080000
        51         -0.95408269        0.063496
        52         -0.95408601        0.063496
        53         -0.95408622        0.063496
        54         -0.95409183        0.063496
        55         -0.95410146        0.063496
        56         -0.95411125        0.063496
        57         -0.95411328        0.063496
        58         -0.95413647        0.063496
        59         -0.95414259        0.050397
        60         -0.95415223        0.050397
        61         -0.95416219        0.040000
        62         -0.95418478        0.040000
        63         -0.95419500        0.031748
        64         -0.95419536        0.025198
        65         -0.95419738        0.025198
        66         -0.95420210        0.020000
        67         -0.95420216        0.012599
        68         -0.95420301        0.007937
        69         -0.95420357        0.007937
        70         -0.95420361        0.006300
        71         -0.95420372        0.006300
        72         -0.95420426        0.006300
        73         -0.95420434        0.006300
        74         -0.95420445        0.003150
        75         -0.95420447        0.002500
        76         -0.95420448        0.002500
        77         -0.95420449        0.002500
        78         -0.95420459        0.002500
        79         -0.95420460        0.001575
        80         -0.95420460        0.001575
        81         -0.95420460        0.000394
        82         -0.95420460        0.000394
        83         -0.95420460        0.000394
        84         -0.95420460        0.000394
        85         -0.95420461        0.000248
        86         -0.95420461        0.000248
        87         -0.95420461        0.000248
        88         -0.95420461        0.000248
        89         -0.95420461        0.000248
        90         -0.95420461        0.000248
        91         -0.95420461        0.000248
        92         -0.95420461        0.000248
        93         -0.95420461        0.000248
        94         -0.95420461        0.000248
        95         -0.95420461        0.000248
        96         -0.95420461        0.000248
        97         -0.95420461        0.000197
        98         -0.95420461        0.000156
        99         -0.95420461        0.000156
       100         -0.95420461        0.000156
       101         -0.95420461        0.000156
       102         -0.95420461        0.000156
       103         -0.95420461        0.000156
       104         -0.95420462        0.000156
       105         -0.95420462        0.000156
       106         -0.95420462        0.000156
       107         -0.95420462        0.000156
       108         -0.95420462        0.000156
       109         -0.95420462        0.000156
       110         -0.95420462        0.000156
       111         -0.95420462        0.000156
       112         -0.95420462        0.000156
       113         -0.95420462        0.000098
       114         -0.95420462        0.000098
       115         -0.95420462        0.000098
       116         -0.95420462        0.000078
       117         -0.95420462        0.000078
       118         -0.95420462        0.000078
       119         -0.95420462        0.000078
       120         -0.95420462        0.000078
       121         -0.95420462        0.000078
       122         -0.95420462        0.000078
       123         -0.95420462        0.000078
       124         -0.95420462        0.000078
       125         -0.95420462        0.000078
       126         -0.95420462        0.000049
       127         -0.95420462        0.000039
       128         -0.95420462        0.000039
       129         -0.95420462        0.000039
       130         -0.95420462        0.000031
       131         -0.95420462        0.000031
       132         -0.95420462        0.000031
       133         -0.95420462        0.000031
       134         -0.95420462        0.000031
       135         -0.95420462        0.000031
       136         -0.95420462        0.000031
       137         -0.95420462        0.000031
       138         -0.95420462        0.000025
       139         -0.95420462        0.000025
       140         -0.95420462        0.000025
       141         -0.95420462        0.000025
       142         -0.95420462        0.000025
       143         -0.95420462        0.000025
       144         -0.95420462        0.000025
       145         -0.95420462        0.000025
       146         -0.95420462        0.000025
       147         -0.95420462        0.000020
       148         -0.95420462        0.000020
       149         -0.95420462        0.000016
       150         -0.95420462        0.000012
       151         -0.95420462        0.000012
       152         -0.95420462        0.000012
       153         -0.95420462        0.000012
       154         -0.95420462        0.000012
       155         -0.95420462        0.000012
       156         -0.95420462        0.000012
       157         -0.95420462        0.000012
       158         -0.95420462        0.000010
       159         -0.95420462        0.000006
       160         -0.95420462        0.000004
       161         -0.95420462        0.000004
       162         -0.95420462        0.000004
       163         -0.95420462        0.000004
       164         -0.95420462        0.000004
       165         -0.95420462        0.000004
       166         -0.95420462        0.000004
       167         -0.95420462        0.000004
       168         -0.95420462        0.000004
       169         -0.95420462        0.000004
       170         -0.95420462        0.000004
       171         -0.95420462        0.000004
       172         -0.95420462        0.000003
       173         -0.95420462        0.000003
       174         -0.95420462        0.000003
       175         -0.95420462        0.000002
       176         -0.95420462        0.000002
       177         -0.95420462        0.000002
       178         -0.95420462        0.000002
       179         -0.95420462        0.000002
       180         -0.95420462        0.000002
       181         -0.95420462        0.000002
       182         -0.95420462        0.000002
       183         -0.95420462        0.000002
       184         -0.95420462        0.000002
       185         -0.95420462        0.000002
       186         -0.95420462        0.000002
       187         -0.95420462        0.000002
       188         -0.95420462        0.000002
       189         -0.95420462        0.000001

 Reached Convergence

 WFN1                     :
 --------------------------
 Total WFN1 energy  =          -0.9542046173
 1-Electron energy  =          -1.2625112083
 2-Electron energy  =           0.3785757586
 Correlation energy =          -0.2372505385
 DFT XC energy      =           0.0000000000
 Entropy energy     =           0.0000000000
 Nuclear energy     =           0.1669813709

 conventional Hartree-Fock:
 --------------------------
 Total SCF energy  =          -0.8572242881
 2-Electron energy =           0.4755560878

                WFN1 Final Natural orbital energies and occupations
                ---------------------------------------------------

              Alpha       Beta            Alpha       Beta  
            --------    --------        --------    --------
       1      0.0000      0.0000          0.5448      0.5448
       2      0.0000      0.0000          0.4216      0.4216
       3      0.0000      0.0000          0.0184      0.0184
       4      0.0000      0.0000          0.0152      0.0152

             WFN1 Final Correlation function energies and occupations
             --------------------------------------------------------

              Alpha       Beta            Alpha       Beta  
            --------    --------        --------    --------
       1      0.0000      0.0000          1.0000      1.0000
       2      0.0000      0.0000          0.0000      0.0000
       3      0.0000      0.0000          0.0000      0.0000
       4      0.0000      0.0000          0.0000      0.0000

                WFN1 Final alpha-alpha 2-matrix occupation numbers
                --------------------------------------------------


 global array: g_momo1[1:4,1:4],  handle: -990 

            1           2           3           4  
       ----------- ----------- ----------- -----------
   1       0.00000     0.00000    -0.00000     0.00000
   2       0.00000     0.00000    -0.00000     0.00000
   3       0.00000     0.00000     0.00000     0.00000
   4       0.00000     0.00000     0.00000     0.00000

                 WFN1 Final beta-beta 2-matrix occupation numbers
                 ------------------------------------------------


 global array: g_momo2[1:4,1:4],  handle: -989 

            1           2           3           4  
       ----------- ----------- ----------- -----------
   1       0.00000     0.00000    -0.00000     0.00000
   2       0.00000     0.00000    -0.00000     0.00000
   3       0.00000     0.00000     0.00000     0.00000
   4       0.00000     0.00000     0.00000     0.00000

                  WFN1 Final alpha Correlation Function Analysis
                  ----------------------------------------------


 global array: Ca[1:4,1:4],  handle: -977 

                     1                       2                       3                       4  
       ----------------------- ----------------------- ----------------------- -----------------------
   1       0.71871,    0.16814     0.64705,    0.15632    -0.09998,    0.00722    -0.03957,    0.02156
   2       0.38180,    0.52518    -0.43667,   -0.60226    -0.13407,   -0.07859    -0.01557,    0.02502
   3       0.12664,   -0.04862    -0.05625,    0.01125     0.68674,   -0.47312    -0.44201,    0.29577
   4      -0.07021,    0.10136     0.01388,    0.00330    -0.00618,    0.51991    -0.03400,    0.84445

                   WFN1 Final beta Correlation Function Analysis
                   ---------------------------------------------


 global array: Cb[1:4,1:4],  handle: -976 

                     1                       2                       3                       4  
       ----------------------- ----------------------- ----------------------- -----------------------
   1       0.71871,    0.16814     0.64705,    0.15632    -0.09998,    0.00722    -0.03957,    0.02156
   2       0.38180,    0.52518    -0.43667,   -0.60226    -0.13407,   -0.07859    -0.01557,    0.02502
   3       0.12664,   -0.04862    -0.05625,    0.01125     0.68674,   -0.47312    -0.44201,    0.29577
   4      -0.07021,    0.10136     0.01388,    0.00330    -0.00618,    0.51991    -0.03400,    0.84445

                     WFN1 Final Alpha Natural Orbital Analysis
                     -----------------------------------------

 Vector    1  Occ=5.448126D-01  E= 0.000000D+00
              MO Center=  0.0D+00,  0.0D+00, -7.8D-11, r^2= 3.3D+00
   Bfn.  Coefficient  Atom+Function         Bfn.  Coefficient  Atom+Function  
  ----- ------------  ---------------      ----- ------------  ---------------
     2     -0.514257  1 H  s                  4     -0.514257  2 H  s          
     1     -0.239381  1 H  s                  3     -0.239381  2 H  s          

 Vector    2  Occ=4.215823D-01  E= 0.000000D+00
              MO Center=  0.0D+00,  0.0D+00, -4.0D-08, r^2= 3.4D+00
   Bfn.  Coefficient  Atom+Function         Bfn.  Coefficient  Atom+Function  
  ----- ------------  ---------------      ----- ------------  ---------------
     2     -0.511597  1 H  s                  4      0.511597  2 H  s          
     1     -0.269751  1 H  s                  3      0.269751  2 H  s          

 Vector    3  Occ=1.840219D-02  E= 0.000000D+00
              MO Center=  0.0D+00,  0.0D+00, -1.8D-06, r^2= 3.5D+00
   Bfn.  Coefficient  Atom+Function         Bfn.  Coefficient  Atom+Function  
  ----- ------------  ---------------      ----- ------------  ---------------
     1     -0.895576  1 H  s                  3     -0.895575  2 H  s          
     2      0.741450  1 H  s                  4      0.741449  2 H  s          

 Vector    4  Occ=1.520287D-02  E= 0.000000D+00
              MO Center=  0.0D+00,  0.0D+00,  1.8D-06, r^2= 3.9D+00
   Bfn.  Coefficient  Atom+Function         Bfn.  Coefficient  Atom+Function  
  ----- ------------  ---------------      ----- ------------  ---------------
     1     -0.914857  1 H  s                  3      0.914858  2 H  s          
     2      0.837501  1 H  s                  4     -0.837502  2 H  s          


                     WFN1 Final Beta Natural Orbital Analysis
                     ----------------------------------------

 Vector    1  Occ=5.448126D-01  E= 0.000000D+00
              MO Center=  0.0D+00,  0.0D+00, -7.8D-11, r^2= 3.3D+00
   Bfn.  Coefficient  Atom+Function         Bfn.  Coefficient  Atom+Function  
  ----- ------------  ---------------      ----- ------------  ---------------
     2     -0.514257  1 H  s                  4     -0.514257  2 H  s          
     1     -0.239381  1 H  s                  3     -0.239381  2 H  s          

 Vector    2  Occ=4.215823D-01  E= 0.000000D+00
              MO Center=  0.0D+00,  0.0D+00, -4.0D-08, r^2= 3.4D+00
   Bfn.  Coefficient  Atom+Function         Bfn.  Coefficient  Atom+Function  
  ----- ------------  ---------------      ----- ------------  ---------------
     2     -0.511597  1 H  s                  4      0.511597  2 H  s          
     1     -0.269751  1 H  s                  3      0.269751  2 H  s          

 Vector    3  Occ=1.840219D-02  E= 0.000000D+00
              MO Center=  0.0D+00,  0.0D+00, -1.8D-06, r^2= 3.5D+00
   Bfn.  Coefficient  Atom+Function         Bfn.  Coefficient  Atom+Function  
  ----- ------------  ---------------      ----- ------------  ---------------
     1     -0.895576  1 H  s                  3     -0.895575  2 H  s          
     2      0.741450  1 H  s                  4      0.741449  2 H  s          

 Vector    4  Occ=1.520287D-02  E= 0.000000D+00
              MO Center=  0.0D+00,  0.0D+00,  1.8D-06, r^2= 3.9D+00
   Bfn.  Coefficient  Atom+Function         Bfn.  Coefficient  Atom+Function  
  ----- ------------  ---------------      ----- ------------  ---------------
     1     -0.914857  1 H  s                  3      0.914858  2 H  s          
     2      0.837501  1 H  s                  4     -0.837502  2 H  s          


 Task  times  cpu:        8.0s     wall:       10.9s
 Summary of allocated global arrays
-----------------------------------
  No active global arrays



                         GA Statistics for process    0
                         ------------------------------

       create   destroy   get      put      acc     scatter   gather  read&inc
calls:   44       44     6.06e+06 1.28e+04 1.66e+04    0        0       11     
number of processes/call 1.00e+00 1.00e+00 1.00e+00 0.00e+00 0.00e+00
bytes total:             7.79e+08 2.13e+06 2.65e+06 0.00e+00 0.00e+00 8.80e+01
bytes remote:            0.00e+00 0.00e+00 0.00e+00 0.00e+00 0.00e+00 0.00e+00
Max memory consumed for GA by this process: 10624 bytes
MA_summarize_allocated_blocks: starting scan ...
MA_summarize_allocated_blocks: scan completed: 0 heap blocks, 0 stack blocks
MA usage statistics:

	allocation statistics:
					      heap	     stack
					      ----	     -----
	current number of blocks	         0	         0
	maximum number of blocks	        19	        17
	current total bytes		         0	         0
	maximum total bytes		   3204328	  22508616
	maximum total K-bytes		      3205	     22509
	maximum total M-bytes		         4	        23


                                NWChem Input Module
                                -------------------





                                     CITATION
                                     --------
                Please cite the following reference when publishing
                           results obtained with NWChem:

                 M. Valiev, E.J. Bylaska, N. Govind, K. Kowalski,
              T.P. Straatsma, H.J.J. van Dam, D. Wang, J. Nieplocha,
                        E. Apra, T.L. Windus, W.A. de Jong
                 "NWChem: a comprehensive and scalable open-source
                  solution for large scale molecular simulations"
                      Comput. Phys. Commun. 181, 1477 (2010)
                           doi:10.1016/j.cpc.2010.04.018

                                      AUTHORS
                                      -------
          E. Apra, E. J. Bylaska, W. A. de Jong, N. Govind, K. Kowalski,
       T. P. Straatsma, M. Valiev, H. J. J. van Dam, D. Wang, T. L. Windus,
        J. Hammond, J. Autschbach, K. Bhaskaran-Nair, J. Brabec, K. Lopata,
    S. A. Fischer, S. Krishnamoorthy, M. Jacquelin, W. Ma, M. Klemm, O. Villa,
      Y. Chen, V. Anisimov, F. Aquino, S. Hirata, M. T. Hackler, V. Konjkov,
      T. Risthaus, M. Malagoli, A. Marenich, A. Otero-de-la-Roza, J. Mullin,
        P. Nichols, R. Peverati, J. Pittner, Y. Zhao, P.-D. Fan, A. Fonari,
       M. Williamson, R. J. Harrison, J. R. Rehr, M. Dupuis, D. Silverstein,
    D. M. A. Smith, J. Nieplocha, V. Tipparaju, M. Krishnan, B. E. Van Kuiken,
        A. Vazquez-Mayagoitia, L. Jensen, M. Swart, Q. Wu, T. Van Voorhis,
     A. A. Auer, M. Nooijen, L. D. Crosby, E. Brown, G. Cisneros, G. I. Fann,
   H. Fruchtl, J. Garza, K. Hirao, R. A. Kendall, J. A. Nichols, K. Tsemekhman,
    K. Wolinski, J. Anchell, D. E. Bernholdt, P. Borowski, T. Clark, D. Clerc,
   H. Dachsel, M. J. O. Deegan, K. Dyall, D. Elwood, E. Glendening, M. Gutowski,
   A. C. Hess, J. Jaffe, B. G. Johnson, J. Ju, R. Kobayashi, R. Kutteh, Z. Lin,
   R. Littlefield, X. Long, B. Meng, T. Nakajima, S. Niu, L. Pollack, M. Rosing,
   K. Glaesemann, G. Sandrone, M. Stave, H. Taylor, G. Thomas, J. H. van Lenthe,
                               A. T. Wong, Z. Zhang.

 Total times  cpu:        8.1s     wall:       10.9s
