 argument  1 = input-wf.nw



============================== echo of input deck ==============================
echo
start wfn1_dat
geometry units au noautoz
  H 0 0 -1.79434600000000000000
  H 0 0  1.79434600000000000000
  symmetry cs
end
basis
  H library 6-31g
end
set wfn1:input_vectors "atomic"
set wfn1:solver "monte-carlo"
set wfn1:print_error F
set wfn1:t_initial 0.1
#set wfn1:corr_expr "wfn1_mx"
set wfn1:corr_expr "wfn1c"
set wfn1:t_bath 0.0
set wfn1:maxit  20000
task wfn1 energy
================================================================================


                                         
                                         


              Northwest Computational Chemistry Package (NWChem) 6.8
              ------------------------------------------------------


                    Environmental Molecular Sciences Laboratory
                       Pacific Northwest National Laboratory
                                Richland, WA 99352

                              Copyright (c) 1994-2015
                       Pacific Northwest National Laboratory
                            Battelle Memorial Institute

             NWChem is an open-source computational chemistry package
                        distributed under the terms of the
                      Educational Community License (ECL) 2.0
             A copy of the license is included with this distribution
                              in the LICENSE.TXT file

                                  ACKNOWLEDGMENT
                                  --------------

            This software and its documentation were developed at the
            EMSL at Pacific Northwest National Laboratory, a multiprogram
            national laboratory, operated for the U.S. Department of Energy
            by Battelle under Contract Number DE-AC05-76RL01830. Support
            for this work was provided by the Department of Energy Office
            of Biological and Environmental Research, Office of Basic
            Energy Sciences, and the Office of Advanced Scientific Computing.


           Job information
           ---------------

    hostname        = erato
    program         = ../../../bin/LINUX64/nwchem
    date            = Mon Mar  1 01:37:34 2021

    compiled        = Sun_Feb_28_18:02:42_2021
    source          = /home/hvandam/nwchem-1-wfn1
    nwchem branch   = Development
    nwchem revision = nwchem_on_git-124-gad72d19fff205e319ffbbf2bca37a04ded6ad57b
    ga revision     = nwchem_on_git-124-gad72d19
    use scalapack   = F
    input           = input-wf.nw
    prefix          = wfn1_dat.
    data base       = ./wfn1_dat.db
    status          = startup
    nproc           =        1
    time left       =     -1s



           Memory information
           ------------------

    heap     =   13107198 doubles =    100.0 Mbytes
    stack    =   13107195 doubles =    100.0 Mbytes
    global   =   26214400 doubles =    200.0 Mbytes (distinct from heap & stack)
    total    =   52428793 doubles =    400.0 Mbytes
    verify   = yes
    hardfail = no 


           Directory information
           ---------------------

  0 permanent = .
  0 scratch   = .




                                NWChem Input Module
                                -------------------


 Turning off AUTOSYM since
 SYMMETRY directive was detected!



                             Geometry "geometry" -> ""
                             -------------------------

 Output coordinates in a.u. (scale by  1.000000000 to convert to a.u.)

  No.       Tag          Charge          X              Y              Z
 ---- ---------------- ---------- -------------- -------------- --------------
    1 H                    1.0000     0.00000000     0.00000000    -1.79434600
    2 H                    1.0000     0.00000000     0.00000000     1.79434600

      Atomic Mass 
      ----------- 

      H                  1.007825


 Effective nuclear repulsion energy (a.u.)       0.2786530580

            Nuclear Dipole moment (a.u.) 
            ----------------------------
        X                 Y               Z
 ---------------- ---------------- ----------------
     0.0000000000     0.0000000000     0.0000000000

      Symmetry information
      --------------------

 Group name             Cs        
 Group number              2
 Group order               2
 No. of unique centers     1

      Symmetry unique atoms

     1


            XYZ format geometry
            -------------------
     2
 geometry
 H                     0.00000000     0.00000000    -0.94952708
 H                     0.00000000     0.00000000     0.94952708

                      Basis "ao basis" -> "" (cartesian)
                      -----
  H (Hydrogen)
  ------------
            Exponent  Coefficients 
       -------------- ---------------------------------------------------------
  1 S  1.87311370E+01  0.033495
  1 S  2.82539370E+00  0.234727
  1 S  6.40121700E-01  0.813757

  2 S  1.61277800E-01  1.000000



 Summary of "ao basis" -> "" (cartesian)
 ------------------------------------------------------------------------------
       Tag                 Description            Shells   Functions and Types
 ---------------- ------------------------------  ------  ---------------------
 H                           6-31g                   2        2   2s



                                NWChem WFN1 Module
                                ------------------



          No. of electrons :     2
           Alpha electrons :     1
            Beta electrons :     1
          Charge           :     0
          Spin multiplicity:     1

 HvD: wfn1_inpdft
 HvD: nquad_task =                     1
 HvD: iangquad   =                     0
 HvD: gridtype   = user      
 HvD: leb        =  T
 HvD: radgrid    = murakn    
 HvD: trunc_neigh=  T
 HvD: lssw       =  T
 HvD: whichssw   = erf1    
 HvD: mxnrad     =                     0
 HvD: mxnang     =                     0
 HVD: wfn1: movecs_in  = atomic                                                                                                                                                                                                                                                          
 HVD: wfn1: movecs_out = ./wfn1_dat.movecs                                                                                                                                                                                                                                               

      Superposition of Atomic Density Guess
      -------------------------------------

 Sum of atomic energies:          -0.99646508

      Non-variational initial energy
      ------------------------------

 Total energy =      -0.697742
 1-e energy   =      -1.552797
 2-e energy   =       0.576402
 HOMO         =      -0.278463
 LUMO         =      -0.093596

 iteration              energy           error
 ---------              ------           -----
         0         -0.95306459        0.080000
         1         -0.96082474        0.080000
         2         -0.96461504        0.080000
         3         -0.96824790        0.080000
         4         -0.96864815        0.080000
         5         -0.97017067        0.080000
         6         -0.97342714        0.080000
         7         -0.97352536        0.080000
         8         -0.97625729        0.080000
         9         -0.97671609        0.080000
        10         -0.97877119        0.080000
        11         -0.98144915        0.080000
        12         -0.98165020        0.080000
        13         -0.98326267        0.080000
        14         -0.98443570        0.080000
        15         -0.98502104        0.080000
        16         -0.98671968        0.080000
        17         -0.98755967        0.080000
        18         -0.98961979        0.080000
        19         -0.99097012        0.080000
        20         -0.99148517        0.080000
        21         -0.99336978        0.080000
        22         -0.99438859        0.080000
        23         -0.99483828        0.080000
        24         -0.99512057        0.080000
        25         -0.99543243        0.080000
        26         -0.99547778        0.080000
        27         -0.99599455        0.080000
        28         -0.99668285        0.080000
        29         -0.99673341        0.080000
        30         -0.99691227        0.080000
        31         -0.99712365        0.080000
        32         -0.99754541        0.080000
        33         -0.99767203        0.080000
        34         -0.99809469        0.080000
        35         -0.99820830        0.080000
        36         -0.99828209        0.080000
        37         -0.99830164        0.080000
        38         -0.99839053        0.080000
        39         -0.99847739        0.080000
        40         -0.99850410        0.080000
        41         -0.99862837        0.080000
        42         -0.99865983        0.080000
        43         -0.99869956        0.080000
        44         -0.99871124        0.080000
        45         -0.99877394        0.080000
        46         -0.99878544        0.080000
        47         -0.99881545        0.080000
        48         -0.99885811        0.080000
        49         -0.99897338        0.063496
        50         -0.99897814        0.063496
        51         -0.99898517        0.063496
        52         -0.99902587        0.063496
        53         -0.99904509        0.063496
        54         -0.99909225        0.063496
        55         -0.99909838        0.050397
        56         -0.99910925        0.050397
        57         -0.99911591        0.040000
        58         -0.99911912        0.025198
        59         -0.99912005        0.020000
        60         -0.99912439        0.015874
        61         -0.99912653        0.015874
        62         -0.99912949        0.015874
        63         -0.99913051        0.015874
        64         -0.99913264        0.012599
        65         -0.99913340        0.012599
        66         -0.99913368        0.012599
        67         -0.99913378        0.012599
        68         -0.99913619        0.012599
        69         -0.99913673        0.012599
        70         -0.99913707        0.007937
        71         -0.99913735        0.006300
        72         -0.99913743        0.006300
        73         -0.99913803        0.006300
        74         -0.99913815        0.006300
        75         -0.99913853        0.006300
        76         -0.99913895        0.005000
        77         -0.99913908        0.005000
        78         -0.99913910        0.003969
        79         -0.99913915        0.003969
        80         -0.99913920        0.003969
        81         -0.99913928        0.003150
        82         -0.99913929        0.003150
        83         -0.99913943        0.003150
        84         -0.99913945        0.003150
        85         -0.99913949        0.003150
        86         -0.99913954        0.003150
        87         -0.99913975        0.003150
        88         -0.99913980        0.003150
        89         -0.99913983        0.002500
        90         -0.99913985        0.001984
        91         -0.99913998        0.001984
        92         -0.99914003        0.001984
        93         -0.99914003        0.001984
        94         -0.99914007        0.001984
        95         -0.99914010        0.001984
        96         -0.99914015        0.001984
        97         -0.99914016        0.001575
        98         -0.99914017        0.001575
        99         -0.99914018        0.001575
       100         -0.99914019        0.001575
       101         -0.99914021        0.001575
       102         -0.99914027        0.001250
       103         -0.99914027        0.001250
       104         -0.99914028        0.001250
       105         -0.99914030        0.001250
       106         -0.99914031        0.001250
       107         -0.99914033        0.001250
       108         -0.99914035        0.001250
       109         -0.99914037        0.001250
       110         -0.99914037        0.001250
       111         -0.99914040        0.001250
       112         -0.99914041        0.001250
       113         -0.99914043        0.001250
       114         -0.99914043        0.001250
       115         -0.99914043        0.000992
       116         -0.99914044        0.000992
       117         -0.99914046        0.000992
       118         -0.99914047        0.000787
       119         -0.99914048        0.000787
       120         -0.99914049        0.000787
       121         -0.99914049        0.000787
       122         -0.99914050        0.000787
       123         -0.99914050        0.000787
       124         -0.99914050        0.000787
       125         -0.99914050        0.000787
       126         -0.99914051        0.000787
       127         -0.99914052        0.000787
       128         -0.99914052        0.000787
       129         -0.99914052        0.000787
       130         -0.99914053        0.000787
       131         -0.99914053        0.000787
       132         -0.99914053        0.000625
       133         -0.99914053        0.000496
       134         -0.99914054        0.000496
       135         -0.99914054        0.000496
       136         -0.99914054        0.000496
       137         -0.99914054        0.000496
       138         -0.99914055        0.000496
       139         -0.99914055        0.000496
       140         -0.99914056        0.000496
       141         -0.99914056        0.000394
       142         -0.99914056        0.000394
       143         -0.99914056        0.000394
       144         -0.99914056        0.000394
       145         -0.99914056        0.000313
       146         -0.99914056        0.000313
       147         -0.99914056        0.000313
       148         -0.99914056        0.000248
       149         -0.99914056        0.000248
       150         -0.99914056        0.000197
       151         -0.99914056        0.000197
       152         -0.99914056        0.000156
       153         -0.99914056        0.000156
       154         -0.99914056        0.000156
       155         -0.99914056        0.000156
       156         -0.99914056        0.000156
       157         -0.99914056        0.000156
       158         -0.99914056        0.000156
       159         -0.99914056        0.000156
       160         -0.99914056        0.000156
       161         -0.99914056        0.000156
       162         -0.99914056        0.000156
       163         -0.99914056        0.000062
       164         -0.99914056        0.000062
       165         -0.99914056        0.000062
       166         -0.99914056        0.000062
       167         -0.99914056        0.000039
       168         -0.99914056        0.000031
       169         -0.99914056        0.000031
       170         -0.99914056        0.000031
       171         -0.99914056        0.000025
       172         -0.99914056        0.000020
       173         -0.99914056        0.000020
       174         -0.99914056        0.000020
       175         -0.99914056        0.000020
       176         -0.99914056        0.000020
       177         -0.99914056        0.000020
       178         -0.99914056        0.000016
       179         -0.99914056        0.000016
       180         -0.99914056        0.000016
       181         -0.99914056        0.000016
       182         -0.99914056        0.000016
       183         -0.99914056        0.000016
       184         -0.99914056        0.000012
       185         -0.99914056        0.000012
       186         -0.99914056        0.000012
       187         -0.99914056        0.000008
       188         -0.99914056        0.000008
       189         -0.99914056        0.000008
       190         -0.99914056        0.000008
       191         -0.99914056        0.000008
       192         -0.99914056        0.000008
       193         -0.99914056        0.000008
       194         -0.99914056        0.000008
       195         -0.99914056        0.000006
       196         -0.99914056        0.000006
       197         -0.99914056        0.000006
       198         -0.99914056        0.000006
       199         -0.99914056        0.000006
       200         -0.99914056        0.000005
       201         -0.99914056        0.000005
       202         -0.99914056        0.000005
       203         -0.99914056        0.000005
       204         -0.99914056        0.000003
       205         -0.99914056        0.000003
       206         -0.99914056        0.000003
       207         -0.99914056        0.000003
       208         -0.99914056        0.000003
       209         -0.99914056        0.000003
       210         -0.99914056        0.000003
       211         -0.99914056        0.000003
       212         -0.99914056        0.000003
       213         -0.99914056        0.000003
       214         -0.99914056        0.000003
       215         -0.99914056        0.000003
       216         -0.99914056        0.000003
       217         -0.99914056        0.000003
       218         -0.99914056        0.000003
       219         -0.99914056        0.000002
       220         -0.99914056        0.000002
       221         -0.99914056        0.000002
       222         -0.99914056        0.000002
       223         -0.99914056        0.000002
       224         -0.99914056        0.000002
       225         -0.99914056        0.000002
       226         -0.99914056        0.000002
       227         -0.99914056        0.000002
       228         -0.99914056        0.000002
       229         -0.99914056        0.000002
       230         -0.99914056        0.000002
       231         -0.99914056        0.000002
       232         -0.99914056        0.000002
       233         -0.99914056        0.000002
       234         -0.99914056        0.000002
       235         -0.99914056        0.000002
       236         -0.99914056        0.000001
       237         -0.99914056        0.000001
       238         -0.99914056        0.000001
       239         -0.99914056        0.000001
       240         -0.99914056        0.000001
       241         -0.99914056        0.000001

 Reached Convergence

 WFN1                     :
 --------------------------
 Total WFN1 energy  =          -0.9991405641
 1-Electron energy  =          -1.5411646074
 2-Electron energy  =           0.4356956900
 Correlation energy =          -0.1723247047
 DFT XC energy      =           0.0000000000
 Entropy energy     =           0.0000000000
 Nuclear energy     =           0.2786530580

 conventional Hartree-Fock:
 --------------------------
 Total SCF energy  =          -0.9009728088
 2-Electron energy =           0.5338634452

                WFN1 Final Natural orbital energies and occupations
                ---------------------------------------------------

              Alpha       Beta            Alpha       Beta  
            --------    --------        --------    --------
       1      0.0000      0.0000          0.7774      0.7774
       2      0.0000      0.0000          0.1972      0.1972
       3      0.0000      0.0000          0.0142      0.0142
       4      0.0000      0.0000          0.0111      0.0111

             WFN1 Final Correlation function energies and occupations
             --------------------------------------------------------

              Alpha       Beta            Alpha       Beta  
            --------    --------        --------    --------
       1      0.0000      0.0000          1.0000      1.0000
       2      0.0000      0.0000          0.0000      0.0000
       3      0.0000      0.0000          0.0000      0.0000
       4      0.0000      0.0000          0.0000      0.0000

                WFN1 Final alpha-alpha 2-matrix occupation numbers
                --------------------------------------------------


 global array: g_momo1[1:4,1:4],  handle: -990 

            1           2           3           4  
       ----------- ----------- ----------- -----------
   1       0.00000     0.00000     0.00000     0.00000
   2       0.00000     0.00000    -0.00000     0.00000
   3       0.00000     0.00000     0.00000     0.00000
   4       0.00000     0.00000    -0.00000     0.00000

                 WFN1 Final beta-beta 2-matrix occupation numbers
                 ------------------------------------------------


 global array: g_momo2[1:4,1:4],  handle: -989 

            1           2           3           4  
       ----------- ----------- ----------- -----------
   1       0.00000     0.00000     0.00000     0.00000
   2       0.00000     0.00000    -0.00000     0.00000
   3       0.00000     0.00000     0.00000     0.00000
   4       0.00000     0.00000    -0.00000     0.00000

                  WFN1 Final alpha Correlation Function Analysis
                  ----------------------------------------------


 global array: Ca[1:4,1:4],  handle: -977 

                     1                       2                       3                       4  
       ----------------------- ----------------------- ----------------------- -----------------------
   1       0.67580,    0.56634    -0.31080,   -0.32840    -0.11749,   -0.01424     0.04309,   -0.04746
   2      -0.38087,   -0.22835    -0.71087,   -0.52733     0.06379,    0.00552     0.09328,    0.08110
   3       0.11157,   -0.04227     0.07863,   -0.01967     0.65757,   -0.26941     0.63598,   -0.26410
   4      -0.09243,    0.05076     0.01080,   -0.07383     0.07147,    0.68689    -0.06136,   -0.70896

                   WFN1 Final beta Correlation Function Analysis
                   ---------------------------------------------


 global array: Cb[1:4,1:4],  handle: -976 

                     1                       2                       3                       4  
       ----------------------- ----------------------- ----------------------- -----------------------
   1       0.67580,    0.56634    -0.31080,   -0.32840    -0.11749,   -0.01424     0.04309,   -0.04746
   2      -0.38087,   -0.22835    -0.71087,   -0.52733     0.06379,    0.00552     0.09328,    0.08110
   3       0.11157,   -0.04227     0.07863,   -0.01967     0.65757,   -0.26941     0.63598,   -0.26410
   4      -0.09243,    0.05076     0.01080,   -0.07383     0.07147,    0.68689    -0.06136,   -0.70896

                     WFN1 Final Alpha Natural Orbital Analysis
                     -----------------------------------------

 Vector    1  Occ=7.774407D-01  E= 0.000000D+00
              MO Center=  0.0D+00,  0.0D+00, -3.0D-07, r^2= 1.7D+00
   Bfn.  Coefficient  Atom+Function         Bfn.  Coefficient  Atom+Function  
  ----- ------------  ---------------      ----- ------------  ---------------
     2     -0.455541  1 H  s                  4     -0.455541  2 H  s          
     1     -0.231807  1 H  s                  3     -0.231807  2 H  s          

 Vector    2  Occ=1.972048D-01  E= 0.000000D+00
              MO Center=  0.0D+00,  0.0D+00,  2.9D-07, r^2= 1.9D+00
   Bfn.  Coefficient  Atom+Function         Bfn.  Coefficient  Atom+Function  
  ----- ------------  ---------------      ----- ------------  ---------------
     2     -0.558819  1 H  s                  4      0.558819  2 H  s          
     1     -0.324064  1 H  s                  3      0.324065  2 H  s          

 Vector    3  Occ=1.423386D-02  E= 0.000000D+00
              MO Center=  0.0D+00,  0.0D+00,  2.2D-06, r^2= 1.9D+00
   Bfn.  Coefficient  Atom+Function         Bfn.  Coefficient  Atom+Function  
  ----- ------------  ---------------      ----- ------------  ---------------
     1      0.914384  1 H  s                  3      0.914386  2 H  s          
     2     -0.675978  1 H  s                  4     -0.675980  2 H  s          

 Vector    4  Occ=1.112062D-02  E= 0.000000D+00
              MO Center=  0.0D+00,  0.0D+00, -2.2D-06, r^2= 2.6D+00
   Bfn.  Coefficient  Atom+Function         Bfn.  Coefficient  Atom+Function  
  ----- ------------  ---------------      ----- ------------  ---------------
     2     -1.047547  1 H  s                  4      1.047545  2 H  s          
     1      0.903227  1 H  s                  3     -0.903225  2 H  s          


                     WFN1 Final Beta Natural Orbital Analysis
                     ----------------------------------------

 Vector    1  Occ=7.774407D-01  E= 0.000000D+00
              MO Center=  0.0D+00,  0.0D+00, -3.0D-07, r^2= 1.7D+00
   Bfn.  Coefficient  Atom+Function         Bfn.  Coefficient  Atom+Function  
  ----- ------------  ---------------      ----- ------------  ---------------
     2     -0.455541  1 H  s                  4     -0.455541  2 H  s          
     1     -0.231807  1 H  s                  3     -0.231807  2 H  s          

 Vector    2  Occ=1.972048D-01  E= 0.000000D+00
              MO Center=  0.0D+00,  0.0D+00,  2.9D-07, r^2= 1.9D+00
   Bfn.  Coefficient  Atom+Function         Bfn.  Coefficient  Atom+Function  
  ----- ------------  ---------------      ----- ------------  ---------------
     2     -0.558819  1 H  s                  4      0.558819  2 H  s          
     1     -0.324064  1 H  s                  3      0.324065  2 H  s          

 Vector    3  Occ=1.423386D-02  E= 0.000000D+00
              MO Center=  0.0D+00,  0.0D+00,  2.2D-06, r^2= 1.9D+00
   Bfn.  Coefficient  Atom+Function         Bfn.  Coefficient  Atom+Function  
  ----- ------------  ---------------      ----- ------------  ---------------
     1      0.914384  1 H  s                  3      0.914386  2 H  s          
     2     -0.675978  1 H  s                  4     -0.675980  2 H  s          

 Vector    4  Occ=1.112062D-02  E= 0.000000D+00
              MO Center=  0.0D+00,  0.0D+00, -2.2D-06, r^2= 2.6D+00
   Bfn.  Coefficient  Atom+Function         Bfn.  Coefficient  Atom+Function  
  ----- ------------  ---------------      ----- ------------  ---------------
     2     -1.047547  1 H  s                  4      1.047545  2 H  s          
     1      0.903227  1 H  s                  3     -0.903225  2 H  s          


 Task  times  cpu:       10.4s     wall:       13.8s
 Summary of allocated global arrays
-----------------------------------
  No active global arrays



                         GA Statistics for process    0
                         ------------------------------

       create   destroy   get      put      acc     scatter   gather  read&inc
calls:   44       44     7.56e+06 1.59e+04 2.07e+04    0        0       11     
number of processes/call 1.00e+00 1.00e+00 1.00e+00 0.00e+00 0.00e+00
bytes total:             9.71e+08 2.65e+06 3.30e+06 0.00e+00 0.00e+00 8.80e+01
bytes remote:            0.00e+00 0.00e+00 0.00e+00 0.00e+00 0.00e+00 0.00e+00
Max memory consumed for GA by this process: 10624 bytes
MA_summarize_allocated_blocks: starting scan ...
MA_summarize_allocated_blocks: scan completed: 0 heap blocks, 0 stack blocks
MA usage statistics:

	allocation statistics:
					      heap	     stack
					      ----	     -----
	current number of blocks	         0	         0
	maximum number of blocks	        19	        17
	current total bytes		         0	         0
	maximum total bytes		   3204344	  22508664
	maximum total K-bytes		      3205	     22509
	maximum total M-bytes		         4	        23


                                NWChem Input Module
                                -------------------





                                     CITATION
                                     --------
                Please cite the following reference when publishing
                           results obtained with NWChem:

                 M. Valiev, E.J. Bylaska, N. Govind, K. Kowalski,
              T.P. Straatsma, H.J.J. van Dam, D. Wang, J. Nieplocha,
                        E. Apra, T.L. Windus, W.A. de Jong
                 "NWChem: a comprehensive and scalable open-source
                  solution for large scale molecular simulations"
                      Comput. Phys. Commun. 181, 1477 (2010)
                           doi:10.1016/j.cpc.2010.04.018

                                      AUTHORS
                                      -------
          E. Apra, E. J. Bylaska, W. A. de Jong, N. Govind, K. Kowalski,
       T. P. Straatsma, M. Valiev, H. J. J. van Dam, D. Wang, T. L. Windus,
        J. Hammond, J. Autschbach, K. Bhaskaran-Nair, J. Brabec, K. Lopata,
    S. A. Fischer, S. Krishnamoorthy, M. Jacquelin, W. Ma, M. Klemm, O. Villa,
      Y. Chen, V. Anisimov, F. Aquino, S. Hirata, M. T. Hackler, V. Konjkov,
      T. Risthaus, M. Malagoli, A. Marenich, A. Otero-de-la-Roza, J. Mullin,
        P. Nichols, R. Peverati, J. Pittner, Y. Zhao, P.-D. Fan, A. Fonari,
       M. Williamson, R. J. Harrison, J. R. Rehr, M. Dupuis, D. Silverstein,
    D. M. A. Smith, J. Nieplocha, V. Tipparaju, M. Krishnan, B. E. Van Kuiken,
        A. Vazquez-Mayagoitia, L. Jensen, M. Swart, Q. Wu, T. Van Voorhis,
     A. A. Auer, M. Nooijen, L. D. Crosby, E. Brown, G. Cisneros, G. I. Fann,
   H. Fruchtl, J. Garza, K. Hirao, R. A. Kendall, J. A. Nichols, K. Tsemekhman,
    K. Wolinski, J. Anchell, D. E. Bernholdt, P. Borowski, T. Clark, D. Clerc,
   H. Dachsel, M. J. O. Deegan, K. Dyall, D. Elwood, E. Glendening, M. Gutowski,
   A. C. Hess, J. Jaffe, B. G. Johnson, J. Ju, R. Kobayashi, R. Kutteh, Z. Lin,
   R. Littlefield, X. Long, B. Meng, T. Nakajima, S. Niu, L. Pollack, M. Rosing,
   K. Glaesemann, G. Sandrone, M. Stave, H. Taylor, G. Thomas, J. H. van Lenthe,
                               A. T. Wong, Z. Zhang.

 Total times  cpu:       10.4s     wall:       13.8s
