 argument  1 = input-wf.nw



============================== echo of input deck ==============================
echo
start wfn1_dat
geometry units au noautoz
  H 0 0 -5.59434600000000000000
  H 0 0  5.59434600000000000000
  symmetry cs
end
basis
  H library 6-31g
end
set wfn1:input_vectors "atomic"
set wfn1:solver "monte-carlo"
set wfn1:print_error F
set wfn1:t_initial 0.1
#set wfn1:corr_expr "wfn1_mx"
set wfn1:corr_expr "wfn1c"
set wfn1:t_bath 0.0
set wfn1:maxit  20000
task wfn1 energy
================================================================================


                                         
                                         


              Northwest Computational Chemistry Package (NWChem) 6.8
              ------------------------------------------------------


                    Environmental Molecular Sciences Laboratory
                       Pacific Northwest National Laboratory
                                Richland, WA 99352

                              Copyright (c) 1994-2015
                       Pacific Northwest National Laboratory
                            Battelle Memorial Institute

             NWChem is an open-source computational chemistry package
                        distributed under the terms of the
                      Educational Community License (ECL) 2.0
             A copy of the license is included with this distribution
                              in the LICENSE.TXT file

                                  ACKNOWLEDGMENT
                                  --------------

            This software and its documentation were developed at the
            EMSL at Pacific Northwest National Laboratory, a multiprogram
            national laboratory, operated for the U.S. Department of Energy
            by Battelle under Contract Number DE-AC05-76RL01830. Support
            for this work was provided by the Department of Energy Office
            of Biological and Environmental Research, Office of Basic
            Energy Sciences, and the Office of Advanced Scientific Computing.


           Job information
           ---------------

    hostname        = erato
    program         = ../../../bin/LINUX64/nwchem
    date            = Mon Mar  1 01:56:26 2021

    compiled        = Sun_Feb_28_18:02:42_2021
    source          = /home/hvandam/nwchem-1-wfn1
    nwchem branch   = Development
    nwchem revision = nwchem_on_git-124-gad72d19fff205e319ffbbf2bca37a04ded6ad57b
    ga revision     = nwchem_on_git-124-gad72d19
    use scalapack   = F
    input           = input-wf.nw
    prefix          = wfn1_dat.
    data base       = ./wfn1_dat.db
    status          = startup
    nproc           =        1
    time left       =     -1s



           Memory information
           ------------------

    heap     =   13107196 doubles =    100.0 Mbytes
    stack    =   13107201 doubles =    100.0 Mbytes
    global   =   26214400 doubles =    200.0 Mbytes (distinct from heap & stack)
    total    =   52428797 doubles =    400.0 Mbytes
    verify   = yes
    hardfail = no 


           Directory information
           ---------------------

  0 permanent = .
  0 scratch   = .




                                NWChem Input Module
                                -------------------


 Turning off AUTOSYM since
 SYMMETRY directive was detected!



                             Geometry "geometry" -> ""
                             -------------------------

 Output coordinates in a.u. (scale by  1.000000000 to convert to a.u.)

  No.       Tag          Charge          X              Y              Z
 ---- ---------------- ---------- -------------- -------------- --------------
    1 H                    1.0000     0.00000000     0.00000000    -5.59434600
    2 H                    1.0000     0.00000000     0.00000000     5.59434600

      Atomic Mass 
      ----------- 

      H                  1.007825


 Effective nuclear repulsion energy (a.u.)       0.0893759521

            Nuclear Dipole moment (a.u.) 
            ----------------------------
        X                 Y               Z
 ---------------- ---------------- ----------------
     0.0000000000     0.0000000000     0.0000000000

      Symmetry information
      --------------------

 Group name             Cs        
 Group number              2
 Group order               2
 No. of unique centers     1

      Symmetry unique atoms

     1


            XYZ format geometry
            -------------------
     2
 geometry
 H                     0.00000000     0.00000000    -2.96040063
 H                     0.00000000     0.00000000     2.96040063

                      Basis "ao basis" -> "" (cartesian)
                      -----
  H (Hydrogen)
  ------------
            Exponent  Coefficients 
       -------------- ---------------------------------------------------------
  1 S  1.87311370E+01  0.033495
  1 S  2.82539370E+00  0.234727
  1 S  6.40121700E-01  0.813757

  2 S  1.61277800E-01  1.000000



 Summary of "ao basis" -> "" (cartesian)
 ------------------------------------------------------------------------------
       Tag                 Description            Shells   Functions and Types
 ---------------- ------------------------------  ------  ---------------------
 H                           6-31g                   2        2   2s



                                NWChem WFN1 Module
                                ------------------



          No. of electrons :     2
           Alpha electrons :     1
            Beta electrons :     1
          Charge           :     0
          Spin multiplicity:     1

 HvD: wfn1_inpdft
 HvD: nquad_task =                     1
 HvD: iangquad   =                     0
 HvD: gridtype   = user      
 HvD: leb        =  T
 HvD: radgrid    = murakn    
 HvD: trunc_neigh=  T
 HvD: lssw       =  T
 HvD: whichssw   = erf1    
 HvD: mxnrad     =                     0
 HvD: mxnang     =                     0
 HVD: wfn1: movecs_in  = atomic                                                                                                                                                                                                                                                          
 HVD: wfn1: movecs_out = ./wfn1_dat.movecs                                                                                                                                                                                                                                               

      Superposition of Atomic Density Guess
      -------------------------------------

 Sum of atomic energies:          -0.99646508

      Non-variational initial energy
      ------------------------------

 Total energy =      -0.682110
 1-e energy   =      -1.175218
 2-e energy   =       0.403732
 HOMO         =      -0.191218
 LUMO         =      -0.191154

 iteration              energy           error
 ---------              ------           -----
         0         -0.86533203        0.080000
         1         -0.87104392        0.080000
         2         -0.87302442        0.080000
         3         -0.87421802        0.080000
         4         -0.87883640        0.080000
         5         -0.88317267        0.080000
         6         -0.89050977        0.080000
         7         -0.89417970        0.080000
         8         -0.89439075        0.080000
         9         -0.89945213        0.080000
        10         -0.90008638        0.080000
        11         -0.90272377        0.080000
        12         -0.90448517        0.080000
        13         -0.90513163        0.080000
        14         -0.90927215        0.080000
        15         -0.91339423        0.080000
        16         -0.91367431        0.080000
        17         -0.91629980        0.080000
        18         -0.91826581        0.080000
        19         -0.91865504        0.080000
        20         -0.92025551        0.080000
        21         -0.92237787        0.080000
        22         -0.92368342        0.080000
        23         -0.92425538        0.080000
        24         -0.92535586        0.080000
        25         -0.92613530        0.080000
        26         -0.92636353        0.080000
        27         -0.92670707        0.080000
        28         -0.92685696        0.080000
        29         -0.92716572        0.080000
        30         -0.92756041        0.080000
        31         -0.92773834        0.080000
        32         -0.92825663        0.080000
        33         -0.92849858        0.080000
        34         -0.92880467        0.080000
        35         -0.92893802        0.080000
        36         -0.92895103        0.080000
        37         -0.92896049        0.080000
        38         -0.92899060        0.080000
        39         -0.92899373        0.040000
        40         -0.92899958        0.040000
        41         -0.92900023        0.040000
        42         -0.92900844        0.040000
        43         -0.92901289        0.025198
        44         -0.92901374        0.020000
        45         -0.92901526        0.020000
        46         -0.92901946        0.015874
        47         -0.92901948        0.010000
        48         -0.92901976        0.010000
        49         -0.92902006        0.007937
        50         -0.92902016        0.007937
        51         -0.92902051        0.007937
        52         -0.92902100        0.006300
        53         -0.92902103        0.006300
        54         -0.92902107        0.003969
        55         -0.92902114        0.003969
        56         -0.92902123        0.003969
        57         -0.92902127        0.003150
        58         -0.92902129        0.003150
        59         -0.92902132        0.001575
        60         -0.92902136        0.001575
        61         -0.92902138        0.001250
        62         -0.92902139        0.000992
        63         -0.92902139        0.000992
        64         -0.92902139        0.000496
        65         -0.92902139        0.000394
        66         -0.92902139        0.000394
        67         -0.92902139        0.000394
        68         -0.92902139        0.000394
        69         -0.92902140        0.000313
        70         -0.92902140        0.000313
        71         -0.92902140        0.000313
        72         -0.92902140        0.000248
        73         -0.92902140        0.000248
        74         -0.92902140        0.000248
        75         -0.92902140        0.000248
        76         -0.92902140        0.000197
        77         -0.92902140        0.000197
        78         -0.92902140        0.000156
        79         -0.92902140        0.000156
        80         -0.92902140        0.000124
        81         -0.92902140        0.000098
        82         -0.92902140        0.000098
        83         -0.92902140        0.000098
        84         -0.92902140        0.000098
        85         -0.92902140        0.000078
        86         -0.92902140        0.000078
        87         -0.92902140        0.000062
        88         -0.92902140        0.000062
        89         -0.92902140        0.000039
        90         -0.92902140        0.000039
        91         -0.92902140        0.000039
        92         -0.92902140        0.000039
        93         -0.92902140        0.000025
        94         -0.92902140        0.000020
        95         -0.92902140        0.000020
        96         -0.92902140        0.000020
        97         -0.92902140        0.000020
        98         -0.92902140        0.000020
        99         -0.92902140        0.000016
       100         -0.92902140        0.000016
       101         -0.92902140        0.000016
       102         -0.92902140        0.000016
       103         -0.92902140        0.000016
       104         -0.92902140        0.000016
       105         -0.92902140        0.000016
       106         -0.92902140        0.000016
       107         -0.92902140        0.000012
       108         -0.92902140        0.000012
       109         -0.92902140        0.000006
       110         -0.92902140        0.000006
       111         -0.92902140        0.000006
       112         -0.92902140        0.000005
       113         -0.92902140        0.000005
       114         -0.92902140        0.000004
       115         -0.92902140        0.000004
       116         -0.92902140        0.000004
       117         -0.92902140        0.000003
       118         -0.92902140        0.000003
       119         -0.92902140        0.000002
       120         -0.92902140        0.000002
       121         -0.92902140        0.000001
       122         -0.92902140        0.000001
       123         -0.92902140        0.000001
       124         -0.92902140        0.000001
       125         -0.92902140        0.000001
       126         -0.92902140        0.000001
       127         -0.92902140        0.000001
       128         -0.92902140        0.000001
       129         -0.92902140        0.000001
       130         -0.92902140        0.000001
       131         -0.92902140        0.000001
       132         -0.92902140        0.000001
       133         -0.92902140        0.000001

 Reached Convergence

 WFN1                     :
 --------------------------
 Total WFN1 energy  =          -0.9290214014
 1-Electron energy  =          -1.1092304513
 2-Electron energy  =           0.3403578246
 Correlation energy =          -0.2495247268
 DFT XC energy      =           0.0000000000
 Entropy energy     =           0.0000000000
 Nuclear energy     =           0.0893759521

 conventional Hartree-Fock:
 --------------------------
 Total SCF energy  =          -0.8703756660
 2-Electron energy =           0.3990035600

                WFN1 Final Natural orbital energies and occupations
                ---------------------------------------------------

              Alpha       Beta            Alpha       Beta  
            --------    --------        --------    --------
       1      0.0000      0.0000          0.4843      0.4843
       2      0.0000      0.0000          0.4840      0.4840
       3      0.0000      0.0000          0.0158      0.0158
       4      0.0000      0.0000          0.0158      0.0158

             WFN1 Final Correlation function energies and occupations
             --------------------------------------------------------

              Alpha       Beta            Alpha       Beta  
            --------    --------        --------    --------
       1      0.0000      0.0000          1.0000      1.0000
       2      0.0000      0.0000          0.0000      0.0000
       3      0.0000      0.0000          0.0000      0.0000
       4      0.0000      0.0000          0.0000      0.0000

                WFN1 Final alpha-alpha 2-matrix occupation numbers
                --------------------------------------------------


 global array: g_momo1[1:4,1:4],  handle: -990 

            1           2           3           4  
       ----------- ----------- ----------- -----------
   1       0.00000     0.00000     0.00000     0.00000
   2       0.00000     0.00000     0.00000     0.00000
   3       0.00000     0.00000    -0.00000     0.00000
   4       0.00000     0.00000    -0.00000     0.00000

                 WFN1 Final beta-beta 2-matrix occupation numbers
                 ------------------------------------------------


 global array: g_momo2[1:4,1:4],  handle: -989 

            1           2           3           4  
       ----------- ----------- ----------- -----------
   1       0.00000     0.00000     0.00000     0.00000
   2       0.00000     0.00000     0.00000     0.00000
   3       0.00000     0.00000    -0.00000     0.00000
   4       0.00000     0.00000    -0.00000     0.00000

                  WFN1 Final alpha Correlation Function Analysis
                  ----------------------------------------------


 global array: Ca[1:4,1:4],  handle: -977 

                     1                       2                       3                       4  
       ----------------------- ----------------------- ----------------------- -----------------------
   1       0.44190,   -0.53763     0.44967,   -0.54144     0.03408,    0.01418    -0.04014,   -0.13167
   2      -0.15997,    0.67707     0.15805,   -0.69033     0.02445,    0.00458     0.10565,    0.05165
   3       0.10151,    0.07437     0.01441,   -0.04031    -0.61581,    0.31195    -0.63523,    0.31982
   4       0.11211,   -0.05709     0.02858,   -0.02119    -0.07423,   -0.71831     0.07248,    0.67540

                   WFN1 Final beta Correlation Function Analysis
                   ---------------------------------------------


 global array: Cb[1:4,1:4],  handle: -976 

                     1                       2                       3                       4  
       ----------------------- ----------------------- ----------------------- -----------------------
   1       0.44190,   -0.53763     0.44967,   -0.54144     0.03408,    0.01418    -0.04014,   -0.13167
   2      -0.15997,    0.67707     0.15805,   -0.69033     0.02445,    0.00458     0.10565,    0.05165
   3       0.10151,    0.07437     0.01441,   -0.04031    -0.61581,    0.31195    -0.63523,    0.31982
   4       0.11211,   -0.05709     0.02858,   -0.02119    -0.07423,   -0.71831     0.07248,    0.67540

                     WFN1 Final Alpha Natural Orbital Analysis
                     -----------------------------------------

 Vector    1  Occ=4.843224D-01  E= 0.000000D+00
              MO Center=  0.0D+00,  0.0D+00,  4.2D-07, r^2= 9.6D+00
   Bfn.  Coefficient  Atom+Function         Bfn.  Coefficient  Atom+Function  
  ----- ------------  ---------------      ----- ------------  ---------------
     2     -0.513838  1 H  s                  4     -0.513838  2 H  s          
     1     -0.253670  1 H  s                  3     -0.253670  2 H  s          

 Vector    2  Occ=4.840161D-01  E= 0.000000D+00
              MO Center=  0.0D+00,  0.0D+00, -4.2D-07, r^2= 9.6D+00
   Bfn.  Coefficient  Atom+Function         Bfn.  Coefficient  Atom+Function  
  ----- ------------  ---------------      ----- ------------  ---------------
     2      0.513764  1 H  s                  4     -0.513764  2 H  s          
     1      0.253774  1 H  s                  3     -0.253774  2 H  s          

 Vector    3  Occ=1.583437D-02  E= 0.000000D+00
              MO Center=  0.0D+00,  0.0D+00, -3.6D-07, r^2= 9.9D+00
   Bfn.  Coefficient  Atom+Function         Bfn.  Coefficient  Atom+Function  
  ----- ------------  ---------------      ----- ------------  ---------------
     1     -0.904434  1 H  s                  3     -0.904434  2 H  s          
     2      0.786310  1 H  s                  4      0.786309  2 H  s          

 Vector    4  Occ=1.582709D-02  E= 0.000000D+00
              MO Center=  0.0D+00,  0.0D+00,  3.6D-07, r^2= 9.9D+00
   Bfn.  Coefficient  Atom+Function         Bfn.  Coefficient  Atom+Function  
  ----- ------------  ---------------      ----- ------------  ---------------
     1     -0.904435  1 H  s                  3      0.904435  2 H  s          
     2      0.786440  1 H  s                  4     -0.786440  2 H  s          


                     WFN1 Final Beta Natural Orbital Analysis
                     ----------------------------------------

 Vector    1  Occ=4.843224D-01  E= 0.000000D+00
              MO Center=  0.0D+00,  0.0D+00,  4.2D-07, r^2= 9.6D+00
   Bfn.  Coefficient  Atom+Function         Bfn.  Coefficient  Atom+Function  
  ----- ------------  ---------------      ----- ------------  ---------------
     2     -0.513838  1 H  s                  4     -0.513838  2 H  s          
     1     -0.253670  1 H  s                  3     -0.253670  2 H  s          

 Vector    2  Occ=4.840161D-01  E= 0.000000D+00
              MO Center=  0.0D+00,  0.0D+00, -4.2D-07, r^2= 9.6D+00
   Bfn.  Coefficient  Atom+Function         Bfn.  Coefficient  Atom+Function  
  ----- ------------  ---------------      ----- ------------  ---------------
     2      0.513764  1 H  s                  4     -0.513764  2 H  s          
     1      0.253774  1 H  s                  3     -0.253774  2 H  s          

 Vector    3  Occ=1.583437D-02  E= 0.000000D+00
              MO Center=  0.0D+00,  0.0D+00, -3.6D-07, r^2= 9.9D+00
   Bfn.  Coefficient  Atom+Function         Bfn.  Coefficient  Atom+Function  
  ----- ------------  ---------------      ----- ------------  ---------------
     1     -0.904434  1 H  s                  3     -0.904434  2 H  s          
     2      0.786310  1 H  s                  4      0.786309  2 H  s          

 Vector    4  Occ=1.582709D-02  E= 0.000000D+00
              MO Center=  0.0D+00,  0.0D+00,  3.6D-07, r^2= 9.9D+00
   Bfn.  Coefficient  Atom+Function         Bfn.  Coefficient  Atom+Function  
  ----- ------------  ---------------      ----- ------------  ---------------
     1     -0.904435  1 H  s                  3      0.904435  2 H  s          
     2      0.786440  1 H  s                  4     -0.786440  2 H  s          


 Task  times  cpu:        9.9s     wall:       14.9s
 Summary of allocated global arrays
-----------------------------------
  No active global arrays



                         GA Statistics for process    0
                         ------------------------------

       create   destroy   get      put      acc     scatter   gather  read&inc
calls:   44       44     6.06e+06 1.28e+04 1.66e+04    0        0       10     
number of processes/call 1.00e+00 1.00e+00 1.00e+00 0.00e+00 0.00e+00
bytes total:             7.79e+08 2.13e+06 2.65e+06 0.00e+00 0.00e+00 8.00e+01
bytes remote:            0.00e+00 0.00e+00 0.00e+00 0.00e+00 0.00e+00 0.00e+00
Max memory consumed for GA by this process: 10624 bytes
MA_summarize_allocated_blocks: starting scan ...
MA_summarize_allocated_blocks: scan completed: 0 heap blocks, 0 stack blocks
MA usage statistics:

	allocation statistics:
					      heap	     stack
					      ----	     -----
	current number of blocks	         0	         0
	maximum number of blocks	        19	        17
	current total bytes		         0	         0
	maximum total bytes		   3204360	  22508648
	maximum total K-bytes		      3205	     22509
	maximum total M-bytes		         4	        23


                                NWChem Input Module
                                -------------------





                                     CITATION
                                     --------
                Please cite the following reference when publishing
                           results obtained with NWChem:

                 M. Valiev, E.J. Bylaska, N. Govind, K. Kowalski,
              T.P. Straatsma, H.J.J. van Dam, D. Wang, J. Nieplocha,
                        E. Apra, T.L. Windus, W.A. de Jong
                 "NWChem: a comprehensive and scalable open-source
                  solution for large scale molecular simulations"
                      Comput. Phys. Commun. 181, 1477 (2010)
                           doi:10.1016/j.cpc.2010.04.018

                                      AUTHORS
                                      -------
          E. Apra, E. J. Bylaska, W. A. de Jong, N. Govind, K. Kowalski,
       T. P. Straatsma, M. Valiev, H. J. J. van Dam, D. Wang, T. L. Windus,
        J. Hammond, J. Autschbach, K. Bhaskaran-Nair, J. Brabec, K. Lopata,
    S. A. Fischer, S. Krishnamoorthy, M. Jacquelin, W. Ma, M. Klemm, O. Villa,
      Y. Chen, V. Anisimov, F. Aquino, S. Hirata, M. T. Hackler, V. Konjkov,
      T. Risthaus, M. Malagoli, A. Marenich, A. Otero-de-la-Roza, J. Mullin,
        P. Nichols, R. Peverati, J. Pittner, Y. Zhao, P.-D. Fan, A. Fonari,
       M. Williamson, R. J. Harrison, J. R. Rehr, M. Dupuis, D. Silverstein,
    D. M. A. Smith, J. Nieplocha, V. Tipparaju, M. Krishnan, B. E. Van Kuiken,
        A. Vazquez-Mayagoitia, L. Jensen, M. Swart, Q. Wu, T. Van Voorhis,
     A. A. Auer, M. Nooijen, L. D. Crosby, E. Brown, G. Cisneros, G. I. Fann,
   H. Fruchtl, J. Garza, K. Hirao, R. A. Kendall, J. A. Nichols, K. Tsemekhman,
    K. Wolinski, J. Anchell, D. E. Bernholdt, P. Borowski, T. Clark, D. Clerc,
   H. Dachsel, M. J. O. Deegan, K. Dyall, D. Elwood, E. Glendening, M. Gutowski,
   A. C. Hess, J. Jaffe, B. G. Johnson, J. Ju, R. Kobayashi, R. Kutteh, Z. Lin,
   R. Littlefield, X. Long, B. Meng, T. Nakajima, S. Niu, L. Pollack, M. Rosing,
   K. Glaesemann, G. Sandrone, M. Stave, H. Taylor, G. Thomas, J. H. van Lenthe,
                               A. T. Wong, Z. Zhang.

 Total times  cpu:        9.9s     wall:       15.0s
