 argument  1 = input-wf.nw



============================== echo of input deck ==============================
echo
start wfn1_dat
geometry units au noautoz
  H 0 0 -3.59434600000000000000
  H 0 0  3.59434600000000000000
  symmetry cs
end
basis
  H library 6-31g
end
set wfn1:input_vectors "atomic"
set wfn1:solver "monte-carlo"
set wfn1:print_error F
set wfn1:t_initial 0.1
#set wfn1:corr_expr "wfn1_mx"
set wfn1:corr_expr "wfn1c"
set wfn1:t_bath 0.0
set wfn1:maxit  20000
task wfn1 energy
================================================================================


                                         
                                         


              Northwest Computational Chemistry Package (NWChem) 6.8
              ------------------------------------------------------


                    Environmental Molecular Sciences Laboratory
                       Pacific Northwest National Laboratory
                                Richland, WA 99352

                              Copyright (c) 1994-2015
                       Pacific Northwest National Laboratory
                            Battelle Memorial Institute

             NWChem is an open-source computational chemistry package
                        distributed under the terms of the
                      Educational Community License (ECL) 2.0
             A copy of the license is included with this distribution
                              in the LICENSE.TXT file

                                  ACKNOWLEDGMENT
                                  --------------

            This software and its documentation were developed at the
            EMSL at Pacific Northwest National Laboratory, a multiprogram
            national laboratory, operated for the U.S. Department of Energy
            by Battelle under Contract Number DE-AC05-76RL01830. Support
            for this work was provided by the Department of Energy Office
            of Biological and Environmental Research, Office of Basic
            Energy Sciences, and the Office of Advanced Scientific Computing.


           Job information
           ---------------

    hostname        = erato
    program         = ../../../bin/LINUX64/nwchem
    date            = Mon Mar  1 01:46:49 2021

    compiled        = Sun_Feb_28_18:02:42_2021
    source          = /home/hvandam/nwchem-1-wfn1
    nwchem branch   = Development
    nwchem revision = nwchem_on_git-124-gad72d19fff205e319ffbbf2bca37a04ded6ad57b
    ga revision     = nwchem_on_git-124-gad72d19
    use scalapack   = F
    input           = input-wf.nw
    prefix          = wfn1_dat.
    data base       = ./wfn1_dat.db
    status          = startup
    nproc           =        1
    time left       =     -1s



           Memory information
           ------------------

    heap     =   13107200 doubles =    100.0 Mbytes
    stack    =   13107197 doubles =    100.0 Mbytes
    global   =   26214400 doubles =    200.0 Mbytes (distinct from heap & stack)
    total    =   52428797 doubles =    400.0 Mbytes
    verify   = yes
    hardfail = no 


           Directory information
           ---------------------

  0 permanent = .
  0 scratch   = .




                                NWChem Input Module
                                -------------------


 Turning off AUTOSYM since
 SYMMETRY directive was detected!



                             Geometry "geometry" -> ""
                             -------------------------

 Output coordinates in a.u. (scale by  1.000000000 to convert to a.u.)

  No.       Tag          Charge          X              Y              Z
 ---- ---------------- ---------- -------------- -------------- --------------
    1 H                    1.0000     0.00000000     0.00000000    -3.59434600
    2 H                    1.0000     0.00000000     0.00000000     3.59434600

      Atomic Mass 
      ----------- 

      H                  1.007825


 Effective nuclear repulsion energy (a.u.)       0.1391073647

            Nuclear Dipole moment (a.u.) 
            ----------------------------
        X                 Y               Z
 ---------------- ---------------- ----------------
     0.0000000000     0.0000000000     0.0000000000

      Symmetry information
      --------------------

 Group name             Cs        
 Group number              2
 Group order               2
 No. of unique centers     1

      Symmetry unique atoms

     1


            XYZ format geometry
            -------------------
     2
 geometry
 H                     0.00000000     0.00000000    -1.90204613
 H                     0.00000000     0.00000000     1.90204613

                      Basis "ao basis" -> "" (cartesian)
                      -----
  H (Hydrogen)
  ------------
            Exponent  Coefficients 
       -------------- ---------------------------------------------------------
  1 S  1.87311370E+01  0.033495
  1 S  2.82539370E+00  0.234727
  1 S  6.40121700E-01  0.813757

  2 S  1.61277800E-01  1.000000



 Summary of "ao basis" -> "" (cartesian)
 ------------------------------------------------------------------------------
       Tag                 Description            Shells   Functions and Types
 ---------------- ------------------------------  ------  ---------------------
 H                           6-31g                   2        2   2s



                                NWChem WFN1 Module
                                ------------------



          No. of electrons :     2
           Alpha electrons :     1
            Beta electrons :     1
          Charge           :     0
          Spin multiplicity:     1

 HvD: wfn1_inpdft
 HvD: nquad_task =                     1
 HvD: iangquad   =                     0
 HvD: gridtype   = user      
 HvD: leb        =  T
 HvD: radgrid    = murakn    
 HvD: trunc_neigh=  T
 HvD: lssw       =  T
 HvD: whichssw   = erf1    
 HvD: mxnrad     =                     0
 HvD: mxnang     =                     0
 HVD: wfn1: movecs_in  = atomic                                                                                                                                                                                                                                                          
 HVD: wfn1: movecs_out = ./wfn1_dat.movecs                                                                                                                                                                                                                                               

      Superposition of Atomic Density Guess
      -------------------------------------

 Sum of atomic energies:          -0.99646508

      Non-variational initial energy
      ------------------------------

 Total energy =      -0.682123
 1-e energy   =      -1.274681
 2-e energy   =       0.453450
 HOMO         =      -0.196136
 LUMO         =      -0.186205

 iteration              energy           error
 ---------              ------           -----
         0         -0.87807369        0.080000
         1         -0.87928652        0.080000
         2         -0.88691344        0.080000
         3         -0.88712451        0.080000
         4         -0.89405043        0.080000
         5         -0.89635912        0.080000
         6         -0.90203495        0.080000
         7         -0.90603401        0.080000
         8         -0.90813612        0.080000
         9         -0.90835471        0.080000
        10         -0.90854438        0.080000
        11         -0.91284742        0.080000
        12         -0.91631817        0.080000
        13         -0.91949647        0.080000
        14         -0.91998961        0.080000
        15         -0.92178521        0.080000
        16         -0.92470598        0.080000
        17         -0.92719098        0.080000
        18         -0.92737414        0.080000
        19         -0.93035142        0.080000
        20         -0.93270617        0.080000
        21         -0.93460217        0.080000
        22         -0.93552141        0.080000
        23         -0.93798238        0.080000
        24         -0.93861164        0.080000
        25         -0.93885060        0.080000
        26         -0.93906725        0.080000
        27         -0.93946271        0.080000
        28         -0.93950080        0.080000
        29         -0.94009038        0.080000
        30         -0.94045399        0.080000
        31         -0.94067310        0.080000
        32         -0.94165016        0.080000
        33         -0.94205239        0.080000
        34         -0.94298669        0.080000
        35         -0.94348102        0.080000
        36         -0.94370420        0.080000
        37         -0.94406344        0.080000
        38         -0.94444957        0.080000
        39         -0.94445633        0.080000
        40         -0.94446068        0.063496
        41         -0.94447084        0.050397
        42         -0.94448121        0.050397
        43         -0.94448252        0.050397
        44         -0.94449187        0.050397
        45         -0.94451220        0.050397
        46         -0.94453525        0.050397
        47         -0.94453548        0.050397
        48         -0.94459062        0.050397
        49         -0.94460298        0.050397
        50         -0.94460428        0.050397
        51         -0.94463352        0.040000
        52         -0.94463526        0.031748
        53         -0.94464258        0.031748
        54         -0.94467459        0.031748
        55         -0.94467561        0.031748
        56         -0.94468244        0.031748
        57         -0.94469015        0.031748
        58         -0.94470570        0.031748
        59         -0.94471127        0.025198
        60         -0.94471629        0.025198
        61         -0.94471695        0.020000
        62         -0.94471955        0.020000
        63         -0.94472578        0.020000
        64         -0.94472824        0.020000
        65         -0.94472877        0.015874
        66         -0.94473008        0.015874
        67         -0.94473284        0.015874
        68         -0.94473619        0.015874
        69         -0.94474470        0.015874
        70         -0.94474608        0.012599
        71         -0.94474620        0.012599
        72         -0.94475253        0.012599
        73         -0.94475416        0.012599
        74         -0.94475535        0.010000
        75         -0.94475559        0.007937
        76         -0.94475627        0.007937
        77         -0.94475640        0.006300
        78         -0.94475825        0.006300
        79         -0.94475902        0.006300
        80         -0.94475926        0.006300
        81         -0.94475944        0.006300
        82         -0.94475971        0.006300
        83         -0.94476079        0.006300
        84         -0.94476097        0.005000
        85         -0.94476117        0.005000
        86         -0.94476127        0.005000
        87         -0.94476217        0.005000
        88         -0.94476221        0.005000
        89         -0.94476269        0.005000
        90         -0.94476289        0.005000
        91         -0.94476303        0.003969
        92         -0.94476307        0.003969
        93         -0.94476309        0.003969
        94         -0.94476335        0.003969
        95         -0.94476344        0.003969
        96         -0.94476345        0.003150
        97         -0.94476351        0.003150
        98         -0.94476366        0.003150
        99         -0.94476368        0.003150
       100         -0.94476384        0.003150
       101         -0.94476384        0.002500
       102         -0.94476388        0.001984
       103         -0.94476389        0.001984
       104         -0.94476392        0.001984
       105         -0.94476392        0.001250
       106         -0.94476393        0.001250
       107         -0.94476394        0.001250
       108         -0.94476394        0.001250
       109         -0.94476394        0.001250
       110         -0.94476394        0.001250
       111         -0.94476395        0.000992
       112         -0.94476395        0.000992
       113         -0.94476395        0.000787
       114         -0.94476396        0.000787
       115         -0.94476396        0.000625
       116         -0.94476396        0.000496
       117         -0.94476397        0.000394
       118         -0.94476397        0.000394
       119         -0.94476397        0.000313
       120         -0.94476397        0.000248
       121         -0.94476397        0.000248
       122         -0.94476397        0.000248
       123         -0.94476397        0.000197
       124         -0.94476397        0.000156
       125         -0.94476397        0.000156
       126         -0.94476397        0.000124
       127         -0.94476397        0.000124
       128         -0.94476397        0.000124
       129         -0.94476397        0.000078
       130         -0.94476397        0.000049
       131         -0.94476397        0.000049
       132         -0.94476397        0.000031
       133         -0.94476397        0.000025
       134         -0.94476397        0.000025
       135         -0.94476397        0.000025
       136         -0.94476397        0.000020
       137         -0.94476397        0.000020
       138         -0.94476397        0.000016
       139         -0.94476397        0.000016
       140         -0.94476397        0.000016
       141         -0.94476397        0.000016
       142         -0.94476397        0.000016
       143         -0.94476397        0.000016
       144         -0.94476397        0.000016
       145         -0.94476397        0.000008
       146         -0.94476397        0.000008
       147         -0.94476397        0.000006
       148         -0.94476397        0.000005
       149         -0.94476397        0.000005
       150         -0.94476397        0.000005
       151         -0.94476397        0.000005
       152         -0.94476397        0.000005
       153         -0.94476397        0.000005
       154         -0.94476397        0.000004
       155         -0.94476397        0.000004
       156         -0.94476397        0.000002
       157         -0.94476397        0.000002
       158         -0.94476397        0.000002
       159         -0.94476397        0.000002
       160         -0.94476397        0.000002
       161         -0.94476397        0.000002
       162         -0.94476397        0.000002
       163         -0.94476397        0.000002
       164         -0.94476397        0.000002
       165         -0.94476397        0.000002
       166         -0.94476397        0.000001
       167         -0.94476397        0.000001
       168         -0.94476397        0.000001
       169         -0.94476397        0.000001

 Reached Convergence

 WFN1                     :
 --------------------------
 Total WFN1 energy  =          -0.9447639723
 1-Electron energy  =          -1.2061213770
 2-Electron energy  =           0.3650699780
 Correlation energy =          -0.2428199381
 DFT XC energy      =           0.0000000000
 Entropy energy     =           0.0000000000
 Nuclear energy     =           0.1391073647

 conventional Hartree-Fock:
 --------------------------
 Total SCF energy  =          -0.8607557371
 2-Electron energy =           0.4490782132

                WFN1 Final Natural orbital energies and occupations
                ---------------------------------------------------

              Alpha       Beta            Alpha       Beta  
            --------    --------        --------    --------
       1      0.0000      0.0000          0.5059      0.5059
       2      0.0000      0.0000          0.4610      0.4610
       3      0.0000      0.0000          0.0172      0.0172
       4      0.0000      0.0000          0.0159      0.0159

             WFN1 Final Correlation function energies and occupations
             --------------------------------------------------------

              Alpha       Beta            Alpha       Beta  
            --------    --------        --------    --------
       1      0.0000      0.0000          1.0000      1.0000
       2      0.0000      0.0000          0.0000      0.0000
       3      0.0000      0.0000          0.0000      0.0000
       4      0.0000      0.0000          0.0000      0.0000

                WFN1 Final alpha-alpha 2-matrix occupation numbers
                --------------------------------------------------


 global array: g_momo1[1:4,1:4],  handle: -990 

            1           2           3           4  
       ----------- ----------- ----------- -----------
   1       0.00000    -0.00000     0.00000     0.00000
   2       0.00000    -0.00000    -0.00000     0.00000
   3      -0.00000    -0.00000     0.00000    -0.00000
   4      -0.00000    -0.00000     0.00000     0.00000

                 WFN1 Final beta-beta 2-matrix occupation numbers
                 ------------------------------------------------


 global array: g_momo2[1:4,1:4],  handle: -989 

            1           2           3           4  
       ----------- ----------- ----------- -----------
   1       0.00000    -0.00000     0.00000     0.00000
   2       0.00000    -0.00000    -0.00000     0.00000
   3      -0.00000    -0.00000     0.00000    -0.00000
   4      -0.00000    -0.00000     0.00000     0.00000

                  WFN1 Final alpha Correlation Function Analysis
                  ----------------------------------------------


 global array: Ca[1:4,1:4],  handle: -977 

                     1                       2                       3                       4  
       ----------------------- ----------------------- ----------------------- -----------------------
   1      -0.18187,   -0.68762    -0.17017,   -0.66613    -0.02834,    0.06420    -0.12612,    0.02398
   2      -0.37826,   -0.56381     0.40344,    0.59686    -0.02032,   -0.04381    -0.07407,    0.11051
   3      -0.12747,   -0.03121    -0.02531,   -0.03356     0.05669,   -0.78684     0.03842,   -0.59767
   4       0.01734,    0.12493     0.06866,   -0.04273     0.58523,   -0.16709    -0.74846,    0.21665

                   WFN1 Final beta Correlation Function Analysis
                   ---------------------------------------------


 global array: Cb[1:4,1:4],  handle: -976 

                     1                       2                       3                       4  
       ----------------------- ----------------------- ----------------------- -----------------------
   1      -0.18187,   -0.68762    -0.17017,   -0.66613    -0.02834,    0.06420    -0.12612,    0.02398
   2      -0.37826,   -0.56381     0.40344,    0.59686    -0.02032,   -0.04381    -0.07407,    0.11051
   3      -0.12747,   -0.03121    -0.02531,   -0.03356     0.05669,   -0.78684     0.03842,   -0.59767
   4       0.01734,    0.12493     0.06866,   -0.04273     0.58523,   -0.16709    -0.74846,    0.21665

                     WFN1 Final Alpha Natural Orbital Analysis
                     -----------------------------------------

 Vector    1  Occ=5.059000D-01  E= 0.000000D+00
              MO Center=  0.0D+00,  0.0D+00,  6.2D-08, r^2= 4.5D+00
   Bfn.  Coefficient  Atom+Function         Bfn.  Coefficient  Atom+Function  
  ----- ------------  ---------------      ----- ------------  ---------------
     2     -0.516428  1 H  s                  4     -0.516428  2 H  s          
     1     -0.247019  1 H  s                  3     -0.247019  2 H  s          

 Vector    2  Occ=4.609690D-01  E= 0.000000D+00
              MO Center=  0.0D+00,  0.0D+00, -7.0D-08, r^2= 4.5D+00
   Bfn.  Coefficient  Atom+Function         Bfn.  Coefficient  Atom+Function  
  ----- ------------  ---------------      ----- ------------  ---------------
     2     -0.511178  1 H  s                  4      0.511178  2 H  s          
     1     -0.260311  1 H  s                  3      0.260311  2 H  s          

 Vector    3  Occ=1.722166D-02  E= 0.000000D+00
              MO Center=  0.0D+00,  0.0D+00, -1.2D-06, r^2= 4.7D+00
   Bfn.  Coefficient  Atom+Function         Bfn.  Coefficient  Atom+Function  
  ----- ------------  ---------------      ----- ------------  ---------------
     1      0.901509  1 H  s                  3      0.901509  2 H  s          
     2     -0.770524  1 H  s                  4     -0.770524  2 H  s          

 Vector    4  Occ=1.590937D-02  E= 0.000000D+00
              MO Center=  0.0D+00,  0.0D+00,  1.2D-06, r^2= 4.8D+00
   Bfn.  Coefficient  Atom+Function         Bfn.  Coefficient  Atom+Function  
  ----- ------------  ---------------      ----- ------------  ---------------
     1     -0.907584  1 H  s                  3      0.907584  2 H  s          
     2      0.802620  1 H  s                  4     -0.802620  2 H  s          


                     WFN1 Final Beta Natural Orbital Analysis
                     ----------------------------------------

 Vector    1  Occ=5.059000D-01  E= 0.000000D+00
              MO Center=  0.0D+00,  0.0D+00,  6.2D-08, r^2= 4.5D+00
   Bfn.  Coefficient  Atom+Function         Bfn.  Coefficient  Atom+Function  
  ----- ------------  ---------------      ----- ------------  ---------------
     2     -0.516428  1 H  s                  4     -0.516428  2 H  s          
     1     -0.247019  1 H  s                  3     -0.247019  2 H  s          

 Vector    2  Occ=4.609690D-01  E= 0.000000D+00
              MO Center=  0.0D+00,  0.0D+00, -7.0D-08, r^2= 4.5D+00
   Bfn.  Coefficient  Atom+Function         Bfn.  Coefficient  Atom+Function  
  ----- ------------  ---------------      ----- ------------  ---------------
     2     -0.511178  1 H  s                  4      0.511178  2 H  s          
     1     -0.260311  1 H  s                  3      0.260311  2 H  s          

 Vector    3  Occ=1.722166D-02  E= 0.000000D+00
              MO Center=  0.0D+00,  0.0D+00, -1.2D-06, r^2= 4.7D+00
   Bfn.  Coefficient  Atom+Function         Bfn.  Coefficient  Atom+Function  
  ----- ------------  ---------------      ----- ------------  ---------------
     1      0.901509  1 H  s                  3      0.901509  2 H  s          
     2     -0.770524  1 H  s                  4     -0.770524  2 H  s          

 Vector    4  Occ=1.590937D-02  E= 0.000000D+00
              MO Center=  0.0D+00,  0.0D+00,  1.2D-06, r^2= 4.8D+00
   Bfn.  Coefficient  Atom+Function         Bfn.  Coefficient  Atom+Function  
  ----- ------------  ---------------      ----- ------------  ---------------
     1     -0.907584  1 H  s                  3      0.907584  2 H  s          
     2      0.802620  1 H  s                  4     -0.802620  2 H  s          


 Task  times  cpu:       10.2s     wall:       15.2s
 Summary of allocated global arrays
-----------------------------------
  No active global arrays



                         GA Statistics for process    0
                         ------------------------------

       create   destroy   get      put      acc     scatter   gather  read&inc
calls:   44       44     5.83e+06 1.23e+04 1.60e+04    0        0       11     
number of processes/call 1.00e+00 1.00e+00 1.00e+00 0.00e+00 0.00e+00
bytes total:             7.49e+08 2.05e+06 2.55e+06 0.00e+00 0.00e+00 8.80e+01
bytes remote:            0.00e+00 0.00e+00 0.00e+00 0.00e+00 0.00e+00 0.00e+00
Max memory consumed for GA by this process: 10624 bytes
MA_summarize_allocated_blocks: starting scan ...
MA_summarize_allocated_blocks: scan completed: 0 heap blocks, 0 stack blocks
MA usage statistics:

	allocation statistics:
					      heap	     stack
					      ----	     -----
	current number of blocks	         0	         0
	maximum number of blocks	        19	        17
	current total bytes		         0	         0
	maximum total bytes		   3204328	  22508616
	maximum total K-bytes		      3205	     22509
	maximum total M-bytes		         4	        23


                                NWChem Input Module
                                -------------------





                                     CITATION
                                     --------
                Please cite the following reference when publishing
                           results obtained with NWChem:

                 M. Valiev, E.J. Bylaska, N. Govind, K. Kowalski,
              T.P. Straatsma, H.J.J. van Dam, D. Wang, J. Nieplocha,
                        E. Apra, T.L. Windus, W.A. de Jong
                 "NWChem: a comprehensive and scalable open-source
                  solution for large scale molecular simulations"
                      Comput. Phys. Commun. 181, 1477 (2010)
                           doi:10.1016/j.cpc.2010.04.018

                                      AUTHORS
                                      -------
          E. Apra, E. J. Bylaska, W. A. de Jong, N. Govind, K. Kowalski,
       T. P. Straatsma, M. Valiev, H. J. J. van Dam, D. Wang, T. L. Windus,
        J. Hammond, J. Autschbach, K. Bhaskaran-Nair, J. Brabec, K. Lopata,
    S. A. Fischer, S. Krishnamoorthy, M. Jacquelin, W. Ma, M. Klemm, O. Villa,
      Y. Chen, V. Anisimov, F. Aquino, S. Hirata, M. T. Hackler, V. Konjkov,
      T. Risthaus, M. Malagoli, A. Marenich, A. Otero-de-la-Roza, J. Mullin,
        P. Nichols, R. Peverati, J. Pittner, Y. Zhao, P.-D. Fan, A. Fonari,
       M. Williamson, R. J. Harrison, J. R. Rehr, M. Dupuis, D. Silverstein,
    D. M. A. Smith, J. Nieplocha, V. Tipparaju, M. Krishnan, B. E. Van Kuiken,
        A. Vazquez-Mayagoitia, L. Jensen, M. Swart, Q. Wu, T. Van Voorhis,
     A. A. Auer, M. Nooijen, L. D. Crosby, E. Brown, G. Cisneros, G. I. Fann,
   H. Fruchtl, J. Garza, K. Hirao, R. A. Kendall, J. A. Nichols, K. Tsemekhman,
    K. Wolinski, J. Anchell, D. E. Bernholdt, P. Borowski, T. Clark, D. Clerc,
   H. Dachsel, M. J. O. Deegan, K. Dyall, D. Elwood, E. Glendening, M. Gutowski,
   A. C. Hess, J. Jaffe, B. G. Johnson, J. Ju, R. Kobayashi, R. Kutteh, Z. Lin,
   R. Littlefield, X. Long, B. Meng, T. Nakajima, S. Niu, L. Pollack, M. Rosing,
   K. Glaesemann, G. Sandrone, M. Stave, H. Taylor, G. Thomas, J. H. van Lenthe,
                               A. T. Wong, Z. Zhang.

 Total times  cpu:       10.2s     wall:       15.2s
