 argument  1 = input-wf.nw



============================== echo of input deck ==============================
echo
start wfn1_dat
geometry units au noautoz
  H 0 0 -4.59434600000000000000
  H 0 0  4.59434600000000000000
  symmetry cs
end
basis
  H library 6-31g
end
set wfn1:input_vectors "atomic"
set wfn1:solver "monte-carlo"
set wfn1:print_error F
set wfn1:t_initial 0.1
#set wfn1:corr_expr "wfn1_mx"
set wfn1:corr_expr "wfn1c"
set wfn1:t_bath 0.0
set wfn1:maxit  20000
task wfn1 energy
================================================================================


                                         
                                         


              Northwest Computational Chemistry Package (NWChem) 6.8
              ------------------------------------------------------


                    Environmental Molecular Sciences Laboratory
                       Pacific Northwest National Laboratory
                                Richland, WA 99352

                              Copyright (c) 1994-2015
                       Pacific Northwest National Laboratory
                            Battelle Memorial Institute

             NWChem is an open-source computational chemistry package
                        distributed under the terms of the
                      Educational Community License (ECL) 2.0
             A copy of the license is included with this distribution
                              in the LICENSE.TXT file

                                  ACKNOWLEDGMENT
                                  --------------

            This software and its documentation were developed at the
            EMSL at Pacific Northwest National Laboratory, a multiprogram
            national laboratory, operated for the U.S. Department of Energy
            by Battelle under Contract Number DE-AC05-76RL01830. Support
            for this work was provided by the Department of Energy Office
            of Biological and Environmental Research, Office of Basic
            Energy Sciences, and the Office of Advanced Scientific Computing.


           Job information
           ---------------

    hostname        = erato
    program         = ../../../bin/LINUX64/nwchem
    date            = Mon Mar  1 01:51:54 2021

    compiled        = Sun_Feb_28_18:02:42_2021
    source          = /home/hvandam/nwchem-1-wfn1
    nwchem branch   = Development
    nwchem revision = nwchem_on_git-124-gad72d19fff205e319ffbbf2bca37a04ded6ad57b
    ga revision     = nwchem_on_git-124-gad72d19
    use scalapack   = F
    input           = input-wf.nw
    prefix          = wfn1_dat.
    data base       = ./wfn1_dat.db
    status          = startup
    nproc           =        1
    time left       =     -1s



           Memory information
           ------------------

    heap     =   13107200 doubles =    100.0 Mbytes
    stack    =   13107197 doubles =    100.0 Mbytes
    global   =   26214400 doubles =    200.0 Mbytes (distinct from heap & stack)
    total    =   52428797 doubles =    400.0 Mbytes
    verify   = yes
    hardfail = no 


           Directory information
           ---------------------

  0 permanent = .
  0 scratch   = .




                                NWChem Input Module
                                -------------------


 Turning off AUTOSYM since
 SYMMETRY directive was detected!



                             Geometry "geometry" -> ""
                             -------------------------

 Output coordinates in a.u. (scale by  1.000000000 to convert to a.u.)

  No.       Tag          Charge          X              Y              Z
 ---- ---------------- ---------- -------------- -------------- --------------
    1 H                    1.0000     0.00000000     0.00000000    -4.59434600
    2 H                    1.0000     0.00000000     0.00000000     4.59434600

      Atomic Mass 
      ----------- 

      H                  1.007825


 Effective nuclear repulsion energy (a.u.)       0.1088294177

            Nuclear Dipole moment (a.u.) 
            ----------------------------
        X                 Y               Z
 ---------------- ---------------- ----------------
     0.0000000000     0.0000000000     0.0000000000

      Symmetry information
      --------------------

 Group name             Cs        
 Group number              2
 Group order               2
 No. of unique centers     1

      Symmetry unique atoms

     1


            XYZ format geometry
            -------------------
     2
 geometry
 H                     0.00000000     0.00000000    -2.43122338
 H                     0.00000000     0.00000000     2.43122338

                      Basis "ao basis" -> "" (cartesian)
                      -----
  H (Hydrogen)
  ------------
            Exponent  Coefficients 
       -------------- ---------------------------------------------------------
  1 S  1.87311370E+01  0.033495
  1 S  2.82539370E+00  0.234727
  1 S  6.40121700E-01  0.813757

  2 S  1.61277800E-01  1.000000



 Summary of "ao basis" -> "" (cartesian)
 ------------------------------------------------------------------------------
       Tag                 Description            Shells   Functions and Types
 ---------------- ------------------------------  ------  ---------------------
 H                           6-31g                   2        2   2s



                                NWChem WFN1 Module
                                ------------------



          No. of electrons :     2
           Alpha electrons :     1
            Beta electrons :     1
          Charge           :     0
          Spin multiplicity:     1

 HvD: wfn1_inpdft
 HvD: nquad_task =                     1
 HvD: iangquad   =                     0
 HvD: gridtype   = user      
 HvD: leb        =  T
 HvD: radgrid    = murakn    
 HvD: trunc_neigh=  T
 HvD: lssw       =  T
 HvD: whichssw   = erf1    
 HvD: mxnrad     =                     0
 HvD: mxnang     =                     0
 HVD: wfn1: movecs_in  = atomic                                                                                                                                                                                                                                                          
 HVD: wfn1: movecs_out = ./wfn1_dat.movecs                                                                                                                                                                                                                                               

      Superposition of Atomic Density Guess
      -------------------------------------

 Sum of atomic energies:          -0.99646508

      Non-variational initial energy
      ------------------------------

 Total energy =      -0.682110
 1-e energy   =      -1.214125
 2-e energy   =       0.423185
 HOMO         =      -0.191738
 LUMO         =      -0.190634

 iteration              energy           error
 ---------              ------           -----
         0         -0.87021719        0.080000
         1         -0.87708027        0.080000
         2         -0.88261277        0.080000
         3         -0.88622432        0.080000
         4         -0.88915642        0.080000
         5         -0.88964216        0.080000
         6         -0.89165568        0.080000
         7         -0.89234296        0.080000
         8         -0.89598032        0.080000
         9         -0.89767869        0.080000
        10         -0.89792217        0.080000
        11         -0.90068990        0.080000
        12         -0.90245343        0.080000
        13         -0.90834586        0.080000
        14         -0.91082821        0.080000
        15         -0.91092518        0.080000
        16         -0.91477481        0.080000
        17         -0.91628636        0.080000
        18         -0.91723825        0.080000
        19         -0.91800813        0.080000
        20         -0.91819968        0.080000
        21         -0.91967576        0.080000
        22         -0.92061847        0.080000
        23         -0.92187122        0.080000
        24         -0.92391386        0.080000
        25         -0.92405194        0.080000
        26         -0.92544588        0.080000
        27         -0.92623001        0.080000
        28         -0.92678883        0.080000
        29         -0.92680754        0.080000
        30         -0.92706379        0.080000
        31         -0.92853159        0.080000
        32         -0.92965842        0.080000
        33         -0.93010918        0.080000
        34         -0.93082323        0.080000
        35         -0.93140288        0.080000
        36         -0.93206011        0.080000
        37         -0.93243853        0.080000
        38         -0.93273509        0.080000
        39         -0.93285110        0.080000
        40         -0.93353671        0.080000
        41         -0.93363190        0.080000
        42         -0.93376102        0.080000
        43         -0.93381492        0.080000
        44         -0.93403971        0.080000
        45         -0.93427965        0.080000
        46         -0.93478067        0.080000
        47         -0.93496664        0.080000
        48         -0.93498086        0.080000
        49         -0.93500016        0.080000
        50         -0.93502711        0.080000
        51         -0.93503622        0.063496
        52         -0.93504954        0.050397
        53         -0.93506001        0.050397
        54         -0.93506508        0.050397
        55         -0.93508005        0.050397
        56         -0.93508132        0.025198
        57         -0.93508991        0.025198
        58         -0.93509177        0.025198
        59         -0.93510219        0.020000
        60         -0.93510224        0.020000
        61         -0.93510296        0.015874
        62         -0.93510317        0.012599
        63         -0.93510363        0.012599
        64         -0.93510393        0.012599
        65         -0.93510478        0.012599
        66         -0.93510616        0.012599
        67         -0.93510735        0.010000
        68         -0.93510759        0.007937
        69         -0.93510826        0.006300
        70         -0.93510832        0.006300
        71         -0.93510841        0.003969
        72         -0.93510863        0.003150
        73         -0.93510865        0.002500
        74         -0.93510866        0.002500
        75         -0.93510866        0.001575
        76         -0.93510870        0.001575
        77         -0.93510871        0.001575
        78         -0.93510871        0.001250
        79         -0.93510872        0.001250
        80         -0.93510872        0.001250
        81         -0.93510872        0.001250
        82         -0.93510873        0.001250
        83         -0.93510873        0.000625
        84         -0.93510874        0.000625
        85         -0.93510874        0.000625
        86         -0.93510874        0.000496
        87         -0.93510874        0.000394
        88         -0.93510874        0.000394
        89         -0.93510874        0.000313
        90         -0.93510875        0.000313
        91         -0.93510875        0.000313
        92         -0.93510875        0.000313
        93         -0.93510875        0.000313
        94         -0.93510875        0.000313
        95         -0.93510875        0.000248
        96         -0.93510875        0.000248
        97         -0.93510875        0.000248
        98         -0.93510875        0.000248
        99         -0.93510875        0.000248
       100         -0.93510875        0.000248
       101         -0.93510875        0.000248
       102         -0.93510875        0.000156
       103         -0.93510875        0.000156
       104         -0.93510875        0.000098
       105         -0.93510875        0.000078
       106         -0.93510875        0.000078
       107         -0.93510875        0.000078
       108         -0.93510875        0.000062
       109         -0.93510875        0.000062
       110         -0.93510875        0.000062
       111         -0.93510875        0.000049
       112         -0.93510875        0.000049
       113         -0.93510875        0.000049
       114         -0.93510875        0.000049
       115         -0.93510875        0.000039
       116         -0.93510875        0.000039
       117         -0.93510875        0.000039
       118         -0.93510875        0.000039
       119         -0.93510875        0.000039
       120         -0.93510875        0.000039
       121         -0.93510875        0.000039
       122         -0.93510875        0.000039
       123         -0.93510875        0.000039
       124         -0.93510875        0.000039
       125         -0.93510875        0.000039
       126         -0.93510875        0.000039
       127         -0.93510875        0.000039
       128         -0.93510875        0.000031
       129         -0.93510875        0.000025
       130         -0.93510875        0.000020
       131         -0.93510875        0.000016
       132         -0.93510875        0.000016
       133         -0.93510875        0.000012
       134         -0.93510875        0.000012
       135         -0.93510875        0.000012
       136         -0.93510875        0.000012
       137         -0.93510875        0.000006
       138         -0.93510875        0.000005
       139         -0.93510875        0.000004
       140         -0.93510875        0.000004
       141         -0.93510875        0.000004
       142         -0.93510875        0.000004
       143         -0.93510875        0.000002
       144         -0.93510875        0.000002
       145         -0.93510875        0.000002
       146         -0.93510875        0.000002
       147         -0.93510875        0.000002
       148         -0.93510875        0.000002
       149         -0.93510875        0.000002
       150         -0.93510875        0.000002
       151         -0.93510875        0.000001
       152         -0.93510875        0.000001
       153         -0.93510875        0.000001
       154         -0.93510875        0.000001

 Reached Convergence

 WFN1                     :
 --------------------------
 Total WFN1 energy  =          -0.9351087518
 1-Electron energy  =          -1.1470069424
 2-Electron energy  =           0.3500691851
 Correlation energy =          -0.2470004122
 DFT XC energy      =           0.0000000000
 Entropy energy     =           0.0000000000
 Nuclear energy     =           0.1088294177

 conventional Hartree-Fock:
 --------------------------
 Total SCF energy  =          -0.8664872355
 2-Electron energy =           0.4186907013

                WFN1 Final Natural orbital energies and occupations
                ---------------------------------------------------

              Alpha       Beta            Alpha       Beta  
            --------    --------        --------    --------
       1      0.0000      0.0000          0.4865      0.4865
       2      0.0000      0.0000          0.4813      0.4813
       3      0.0000      0.0000          0.0162      0.0162
       4      0.0000      0.0000          0.0161      0.0161

             WFN1 Final Correlation function energies and occupations
             --------------------------------------------------------

              Alpha       Beta            Alpha       Beta  
            --------    --------        --------    --------
       1      0.0000      0.0000          1.0000      1.0000
       2      0.0000      0.0000          0.0000      0.0000
       3      0.0000      0.0000          0.0000      0.0000
       4      0.0000      0.0000          0.0000      0.0000

                WFN1 Final alpha-alpha 2-matrix occupation numbers
                --------------------------------------------------


 global array: g_momo1[1:4,1:4],  handle: -990 

            1           2           3           4  
       ----------- ----------- ----------- -----------
   1      -0.00000     0.00000     0.00000     0.00000
   2      -0.00000     0.00000     0.00000     0.00000
   3       0.00000     0.00000     0.00000     0.00000
   4       0.00000     0.00000     0.00000     0.00000

                 WFN1 Final beta-beta 2-matrix occupation numbers
                 ------------------------------------------------


 global array: g_momo2[1:4,1:4],  handle: -989 

            1           2           3           4  
       ----------- ----------- ----------- -----------
   1      -0.00000     0.00000     0.00000     0.00000
   2      -0.00000     0.00000     0.00000     0.00000
   3       0.00000     0.00000     0.00000     0.00000
   4       0.00000     0.00000     0.00000     0.00000

                  WFN1 Final alpha Correlation Function Analysis
                  ----------------------------------------------


 global array: Ca[1:4,1:4],  handle: -981 

                     1                       2                       3                       4  
       ----------------------- ----------------------- ----------------------- -----------------------
   1       0.37684,   -0.58693     0.36856,   -0.59444    -0.06547,    0.03450     0.03917,    0.13155
   2       0.53622,    0.44014    -0.54477,   -0.45467     0.04575,   -0.00485    -0.10527,   -0.04524
   3      -0.02773,   -0.12420     0.01307,   -0.04758    -0.34052,   -0.56830    -0.37107,   -0.63620
   4       0.11724,    0.04803    -0.03424,    0.06088    -0.64344,    0.37347     0.55958,   -0.33534

                   WFN1 Final beta Correlation Function Analysis
                   ---------------------------------------------


 global array: Cb[1:4,1:4],  handle: -980 

                     1                       2                       3                       4  
       ----------------------- ----------------------- ----------------------- -----------------------
   1       0.37684,   -0.58693     0.36856,   -0.59444    -0.06547,    0.03450     0.03917,    0.13155
   2       0.53622,    0.44014    -0.54477,   -0.45467     0.04575,   -0.00485    -0.10527,   -0.04524
   3      -0.02773,   -0.12420     0.01307,   -0.04758    -0.34052,   -0.56830    -0.37107,   -0.63620
   4       0.11724,    0.04803    -0.03424,    0.06088    -0.64344,    0.37347     0.55958,   -0.33534

                     WFN1 Final Alpha Natural Orbital Analysis
                     -----------------------------------------

 Vector    1  Occ=4.864949D-01  E= 0.000000D+00
              MO Center=  0.0D+00,  0.0D+00, -5.0D-08, r^2= 6.8D+00
   Bfn.  Coefficient  Atom+Function         Bfn.  Coefficient  Atom+Function  
  ----- ------------  ---------------      ----- ------------  ---------------
     2     -0.514401  1 H  s                  4     -0.514401  2 H  s          
     1     -0.252782  1 H  s                  3     -0.252782  2 H  s          

 Vector    2  Occ=4.812564D-01  E= 0.000000D+00
              MO Center=  0.0D+00,  0.0D+00,  5.1D-08, r^2= 6.8D+00
   Bfn.  Coefficient  Atom+Function         Bfn.  Coefficient  Atom+Function  
  ----- ------------  ---------------      ----- ------------  ---------------
     2      0.513317  1 H  s                  4     -0.513317  2 H  s          
     1      0.254527  1 H  s                  3     -0.254527  2 H  s          

 Vector    3  Occ=1.619534D-02  E= 0.000000D+00
              MO Center=  0.0D+00,  0.0D+00, -6.0D-08, r^2= 7.0D+00
   Bfn.  Coefficient  Atom+Function         Bfn.  Coefficient  Atom+Function  
  ----- ------------  ---------------      ----- ------------  ---------------
     1     -0.904299  1 H  s                  3     -0.904299  2 H  s          
     2      0.784904  1 H  s                  4      0.784904  2 H  s          

 Vector    4  Occ=1.605336D-02  E= 0.000000D+00
              MO Center=  0.0D+00,  0.0D+00,  6.0D-08, r^2= 7.0D+00
   Bfn.  Coefficient  Atom+Function         Bfn.  Coefficient  Atom+Function  
  ----- ------------  ---------------      ----- ------------  ---------------
     1     -0.904608  1 H  s                  3      0.904608  2 H  s          
     2      0.787770  1 H  s                  4     -0.787770  2 H  s          


                     WFN1 Final Beta Natural Orbital Analysis
                     ----------------------------------------

 Vector    1  Occ=4.864949D-01  E= 0.000000D+00
              MO Center=  0.0D+00,  0.0D+00, -5.0D-08, r^2= 6.8D+00
   Bfn.  Coefficient  Atom+Function         Bfn.  Coefficient  Atom+Function  
  ----- ------------  ---------------      ----- ------------  ---------------
     2     -0.514401  1 H  s                  4     -0.514401  2 H  s          
     1     -0.252782  1 H  s                  3     -0.252782  2 H  s          

 Vector    2  Occ=4.812564D-01  E= 0.000000D+00
              MO Center=  0.0D+00,  0.0D+00,  5.1D-08, r^2= 6.8D+00
   Bfn.  Coefficient  Atom+Function         Bfn.  Coefficient  Atom+Function  
  ----- ------------  ---------------      ----- ------------  ---------------
     2      0.513317  1 H  s                  4     -0.513317  2 H  s          
     1      0.254527  1 H  s                  3     -0.254527  2 H  s          

 Vector    3  Occ=1.619534D-02  E= 0.000000D+00
              MO Center=  0.0D+00,  0.0D+00, -6.0D-08, r^2= 7.0D+00
   Bfn.  Coefficient  Atom+Function         Bfn.  Coefficient  Atom+Function  
  ----- ------------  ---------------      ----- ------------  ---------------
     1     -0.904299  1 H  s                  3     -0.904299  2 H  s          
     2      0.784904  1 H  s                  4      0.784904  2 H  s          

 Vector    4  Occ=1.605336D-02  E= 0.000000D+00
              MO Center=  0.0D+00,  0.0D+00,  6.0D-08, r^2= 7.0D+00
   Bfn.  Coefficient  Atom+Function         Bfn.  Coefficient  Atom+Function  
  ----- ------------  ---------------      ----- ------------  ---------------
     1     -0.904608  1 H  s                  3      0.904608  2 H  s          
     2      0.787770  1 H  s                  4     -0.787770  2 H  s          


 Task  times  cpu:       10.1s     wall:       15.9s
 Summary of allocated global arrays
-----------------------------------
  No active global arrays



                         GA Statistics for process    0
                         ------------------------------

       create   destroy   get      put      acc     scatter   gather  read&inc
calls:   44       44     5.85e+06 1.24e+04 1.61e+04    0        0       11     
number of processes/call 1.00e+00 1.00e+00 1.00e+00 0.00e+00 0.00e+00
bytes total:             7.51e+08 2.05e+06 2.56e+06 0.00e+00 0.00e+00 8.80e+01
bytes remote:            0.00e+00 0.00e+00 0.00e+00 0.00e+00 0.00e+00 0.00e+00
Max memory consumed for GA by this process: 10624 bytes
MA_summarize_allocated_blocks: starting scan ...
MA_summarize_allocated_blocks: scan completed: 0 heap blocks, 0 stack blocks
MA usage statistics:

	allocation statistics:
					      heap	     stack
					      ----	     -----
	current number of blocks	         0	         0
	maximum number of blocks	        19	        17
	current total bytes		         0	         0
	maximum total bytes		   3204328	  22508616
	maximum total K-bytes		      3205	     22509
	maximum total M-bytes		         4	        23


                                NWChem Input Module
                                -------------------





                                     CITATION
                                     --------
                Please cite the following reference when publishing
                           results obtained with NWChem:

                 M. Valiev, E.J. Bylaska, N. Govind, K. Kowalski,
              T.P. Straatsma, H.J.J. van Dam, D. Wang, J. Nieplocha,
                        E. Apra, T.L. Windus, W.A. de Jong
                 "NWChem: a comprehensive and scalable open-source
                  solution for large scale molecular simulations"
                      Comput. Phys. Commun. 181, 1477 (2010)
                           doi:10.1016/j.cpc.2010.04.018

                                      AUTHORS
                                      -------
          E. Apra, E. J. Bylaska, W. A. de Jong, N. Govind, K. Kowalski,
       T. P. Straatsma, M. Valiev, H. J. J. van Dam, D. Wang, T. L. Windus,
        J. Hammond, J. Autschbach, K. Bhaskaran-Nair, J. Brabec, K. Lopata,
    S. A. Fischer, S. Krishnamoorthy, M. Jacquelin, W. Ma, M. Klemm, O. Villa,
      Y. Chen, V. Anisimov, F. Aquino, S. Hirata, M. T. Hackler, V. Konjkov,
      T. Risthaus, M. Malagoli, A. Marenich, A. Otero-de-la-Roza, J. Mullin,
        P. Nichols, R. Peverati, J. Pittner, Y. Zhao, P.-D. Fan, A. Fonari,
       M. Williamson, R. J. Harrison, J. R. Rehr, M. Dupuis, D. Silverstein,
    D. M. A. Smith, J. Nieplocha, V. Tipparaju, M. Krishnan, B. E. Van Kuiken,
        A. Vazquez-Mayagoitia, L. Jensen, M. Swart, Q. Wu, T. Van Voorhis,
     A. A. Auer, M. Nooijen, L. D. Crosby, E. Brown, G. Cisneros, G. I. Fann,
   H. Fruchtl, J. Garza, K. Hirao, R. A. Kendall, J. A. Nichols, K. Tsemekhman,
    K. Wolinski, J. Anchell, D. E. Bernholdt, P. Borowski, T. Clark, D. Clerc,
   H. Dachsel, M. J. O. Deegan, K. Dyall, D. Elwood, E. Glendening, M. Gutowski,
   A. C. Hess, J. Jaffe, B. G. Johnson, J. Ju, R. Kobayashi, R. Kutteh, Z. Lin,
   R. Littlefield, X. Long, B. Meng, T. Nakajima, S. Niu, L. Pollack, M. Rosing,
   K. Glaesemann, G. Sandrone, M. Stave, H. Taylor, G. Thomas, J. H. van Lenthe,
                               A. T. Wong, Z. Zhang.

 Total times  cpu:       10.1s     wall:       15.9s
