 argument  1 = input-wf.nw



============================== echo of input deck ==============================
echo
start wfn1_dat
geometry units au noautoz
  H 0 0 -2.09434600000000000000
  H 0 0  2.09434600000000000000
  symmetry cs
end
basis
  H library 6-31g
end
set wfn1:input_vectors "atomic"
set wfn1:solver "monte-carlo"
set wfn1:print_error F
set wfn1:t_initial 0.1
#set wfn1:corr_expr "wfn1_mx"
set wfn1:corr_expr "wfn1c"
set wfn1:t_bath 0.0
set wfn1:maxit  20000
task wfn1 energy
================================================================================


                                         
                                         


              Northwest Computational Chemistry Package (NWChem) 6.8
              ------------------------------------------------------


                    Environmental Molecular Sciences Laboratory
                       Pacific Northwest National Laboratory
                                Richland, WA 99352

                              Copyright (c) 1994-2015
                       Pacific Northwest National Laboratory
                            Battelle Memorial Institute

             NWChem is an open-source computational chemistry package
                        distributed under the terms of the
                      Educational Community License (ECL) 2.0
             A copy of the license is included with this distribution
                              in the LICENSE.TXT file

                                  ACKNOWLEDGMENT
                                  --------------

            This software and its documentation were developed at the
            EMSL at Pacific Northwest National Laboratory, a multiprogram
            national laboratory, operated for the U.S. Department of Energy
            by Battelle under Contract Number DE-AC05-76RL01830. Support
            for this work was provided by the Department of Energy Office
            of Biological and Environmental Research, Office of Basic
            Energy Sciences, and the Office of Advanced Scientific Computing.


           Job information
           ---------------

    hostname        = erato
    program         = ../../../bin/LINUX64/nwchem
    date            = Mon Mar  1 01:39:10 2021

    compiled        = Sun_Feb_28_18:02:42_2021
    source          = /home/hvandam/nwchem-1-wfn1
    nwchem branch   = Development
    nwchem revision = nwchem_on_git-124-gad72d19fff205e319ffbbf2bca37a04ded6ad57b
    ga revision     = nwchem_on_git-124-gad72d19
    use scalapack   = F
    input           = input-wf.nw
    prefix          = wfn1_dat.
    data base       = ./wfn1_dat.db
    status          = startup
    nproc           =        1
    time left       =     -1s



           Memory information
           ------------------

    heap     =   13107198 doubles =    100.0 Mbytes
    stack    =   13107195 doubles =    100.0 Mbytes
    global   =   26214400 doubles =    200.0 Mbytes (distinct from heap & stack)
    total    =   52428793 doubles =    400.0 Mbytes
    verify   = yes
    hardfail = no 


           Directory information
           ---------------------

  0 permanent = .
  0 scratch   = .




                                NWChem Input Module
                                -------------------


 Turning off AUTOSYM since
 SYMMETRY directive was detected!



                             Geometry "geometry" -> ""
                             -------------------------

 Output coordinates in a.u. (scale by  1.000000000 to convert to a.u.)

  No.       Tag          Charge          X              Y              Z
 ---- ---------------- ---------- -------------- -------------- --------------
    1 H                    1.0000     0.00000000     0.00000000    -2.09434600
    2 H                    1.0000     0.00000000     0.00000000     2.09434600

      Atomic Mass 
      ----------- 

      H                  1.007825


 Effective nuclear repulsion energy (a.u.)       0.2387380118

            Nuclear Dipole moment (a.u.) 
            ----------------------------
        X                 Y               Z
 ---------------- ---------------- ----------------
     0.0000000000     0.0000000000     0.0000000000

      Symmetry information
      --------------------

 Group name             Cs        
 Group number              2
 Group order               2
 No. of unique centers     1

      Symmetry unique atoms

     1


            XYZ format geometry
            -------------------
     2
 geometry
 H                     0.00000000     0.00000000    -1.10828025
 H                     0.00000000     0.00000000     1.10828025

                      Basis "ao basis" -> "" (cartesian)
                      -----
  H (Hydrogen)
  ------------
            Exponent  Coefficients 
       -------------- ---------------------------------------------------------
  1 S  1.87311370E+01  0.033495
  1 S  2.82539370E+00  0.234727
  1 S  6.40121700E-01  0.813757

  2 S  1.61277800E-01  1.000000



 Summary of "ao basis" -> "" (cartesian)
 ------------------------------------------------------------------------------
       Tag                 Description            Shells   Functions and Types
 ---------------- ------------------------------  ------  ---------------------
 H                           6-31g                   2        2   2s



                                NWChem WFN1 Module
                                ------------------



          No. of electrons :     2
           Alpha electrons :     1
            Beta electrons :     1
          Charge           :     0
          Spin multiplicity:     1

 HvD: wfn1_inpdft
 HvD: nquad_task =                     1
 HvD: iangquad   =                     0
 HvD: gridtype   = user      
 HvD: leb        =  T
 HvD: radgrid    = murakn    
 HvD: trunc_neigh=  T
 HvD: lssw       =  T
 HvD: whichssw   = erf1    
 HvD: mxnrad     =                     0
 HvD: mxnang     =                     0
 HVD: wfn1: movecs_in  = atomic                                                                                                                                                                                                                                                          
 HVD: wfn1: movecs_out = ./wfn1_dat.movecs                                                                                                                                                                                                                                               

      Superposition of Atomic Density Guess
      -------------------------------------

 Sum of atomic energies:          -0.99646508

      Non-variational initial energy
      ------------------------------

 Total energy =      -0.688172
 1-e energy   =      -1.473780
 2-e energy   =       0.546869
 HOMO         =      -0.248052
 LUMO         =      -0.128525

 iteration              energy           error
 ---------              ------           -----
         0         -0.92323458        0.080000
         1         -0.92684195        0.080000
         2         -0.92938243        0.080000
         3         -0.93198935        0.080000
         4         -0.93431280        0.080000
         5         -0.93880433        0.080000
         6         -0.94041999        0.080000
         7         -0.94223965        0.080000
         8         -0.94303230        0.080000
         9         -0.94404350        0.080000
        10         -0.94860427        0.080000
        11         -0.95387014        0.080000
        12         -0.95489368        0.080000
        13         -0.95493405        0.080000
        14         -0.95995052        0.080000
        15         -0.96022614        0.080000
        16         -0.96270286        0.080000
        17         -0.96361238        0.080000
        18         -0.96488020        0.080000
        19         -0.96574988        0.080000
        20         -0.96672400        0.080000
        21         -0.96847628        0.080000
        22         -0.96928735        0.080000
        23         -0.97094320        0.080000
        24         -0.97214836        0.080000
        25         -0.97414518        0.080000
        26         -0.97505042        0.080000
        27         -0.97519603        0.080000
        28         -0.97569829        0.080000
        29         -0.97719855        0.080000
        30         -0.97758227        0.080000
        31         -0.97803477        0.080000
        32         -0.97809621        0.080000
        33         -0.97851259        0.080000
        34         -0.97853430        0.080000
        35         -0.97869630        0.080000
        36         -0.97896995        0.080000
        37         -0.97923385        0.080000
        38         -0.97947979        0.080000
        39         -0.97966002        0.080000
        40         -0.97992100        0.080000
        41         -0.98031070        0.080000
        42         -0.98038184        0.080000
        43         -0.98062772        0.080000
        44         -0.98100740        0.080000
        45         -0.98106899        0.080000
        46         -0.98106907        0.080000
        47         -0.98114934        0.080000
        48         -0.98118559        0.080000
        49         -0.98127947        0.063496
        50         -0.98133128        0.063496
        51         -0.98134776        0.063496
        52         -0.98135106        0.050397
        53         -0.98140179        0.050397
        54         -0.98142779        0.050397
        55         -0.98143748        0.040000
        56         -0.98143942        0.031748
        57         -0.98144233        0.031748
        58         -0.98144451        0.031748
        59         -0.98144659        0.031748
        60         -0.98145589        0.031748
        61         -0.98145718        0.025198
        62         -0.98145811        0.025198
        63         -0.98146195        0.025198
        64         -0.98146502        0.020000
        65         -0.98147379        0.020000
        66         -0.98148100        0.020000
        67         -0.98149429        0.020000
        68         -0.98149917        0.020000
        69         -0.98150296        0.015874
        70         -0.98150364        0.015874
        71         -0.98150404        0.012599
        72         -0.98150560        0.012599
        73         -0.98150696        0.012599
        74         -0.98150711        0.012599
        75         -0.98150889        0.012599
        76         -0.98150993        0.012599
        77         -0.98150999        0.007937
        78         -0.98151000        0.007937
        79         -0.98151037        0.007937
        80         -0.98151080        0.007937
        81         -0.98151105        0.007937
        82         -0.98151115        0.007937
        83         -0.98151119        0.007937
        84         -0.98151120        0.007937
        85         -0.98151134        0.007937
        86         -0.98151155        0.007937
        87         -0.98151164        0.007937
        88         -0.98151186        0.007937
        89         -0.98151194        0.007937
        90         -0.98151202        0.007937
        91         -0.98151207        0.007937
        92         -0.98151207        0.007937
        93         -0.98151221        0.003150
        94         -0.98151226        0.003150
        95         -0.98151229        0.002500
        96         -0.98151231        0.002500
        97         -0.98151235        0.001250
        98         -0.98151236        0.001250
        99         -0.98151237        0.000992
       100         -0.98151238        0.000992
       101         -0.98151239        0.000787
       102         -0.98151239        0.000787
       103         -0.98151240        0.000625
       104         -0.98151240        0.000625
       105         -0.98151240        0.000625
       106         -0.98151240        0.000625
       107         -0.98151240        0.000625
       108         -0.98151240        0.000625
       109         -0.98151241        0.000625
       110         -0.98151241        0.000625
       111         -0.98151241        0.000625
       112         -0.98151241        0.000496
       113         -0.98151241        0.000496
       114         -0.98151241        0.000313
       115         -0.98151241        0.000313
       116         -0.98151241        0.000313
       117         -0.98151241        0.000313
       118         -0.98151242        0.000313
       119         -0.98151242        0.000313
       120         -0.98151242        0.000313
       121         -0.98151242        0.000248
       122         -0.98151242        0.000248
       123         -0.98151242        0.000248
       124         -0.98151242        0.000248
       125         -0.98151242        0.000197
       126         -0.98151242        0.000197
       127         -0.98151242        0.000197
       128         -0.98151242        0.000156
       129         -0.98151242        0.000156
       130         -0.98151242        0.000156
       131         -0.98151242        0.000124
       132         -0.98151242        0.000124
       133         -0.98151242        0.000124
       134         -0.98151242        0.000124
       135         -0.98151242        0.000124
       136         -0.98151242        0.000078
       137         -0.98151242        0.000062
       138         -0.98151242        0.000049
       139         -0.98151242        0.000049
       140         -0.98151242        0.000049
       141         -0.98151242        0.000031
       142         -0.98151242        0.000031
       143         -0.98151242        0.000025
       144         -0.98151242        0.000020
       145         -0.98151242        0.000016
       146         -0.98151242        0.000010
       147         -0.98151242        0.000010
       148         -0.98151242        0.000008
       149         -0.98151242        0.000008
       150         -0.98151242        0.000008
       151         -0.98151242        0.000008
       152         -0.98151242        0.000008
       153         -0.98151242        0.000005
       154         -0.98151242        0.000005
       155         -0.98151242        0.000004
       156         -0.98151242        0.000004
       157         -0.98151242        0.000003
       158         -0.98151242        0.000002
       159         -0.98151242        0.000002
       160         -0.98151242        0.000002
       161         -0.98151242        0.000002
       162         -0.98151242        0.000002
       163         -0.98151242        0.000002
       164         -0.98151242        0.000002
       165         -0.98151242        0.000002
       166         -0.98151242        0.000002
       167         -0.98151242        0.000002
       168         -0.98151242        0.000002
       169         -0.98151242        0.000001
       170         -0.98151242        0.000001

 Reached Convergence

 WFN1                     :
 --------------------------
 Total WFN1 energy  =          -0.9815124186
 1-Electron energy  =          -1.4313483299
 2-Electron energy  =           0.4144309522
 Correlation energy =          -0.2033330528
 DFT XC energy      =           0.0000000000
 Entropy energy     =           0.0000000000
 Nuclear energy     =           0.2387380118

 conventional Hartree-Fock:
 --------------------------
 Total SCF energy  =          -0.8723276672
 2-Electron energy =           0.5236157037

                WFN1 Final Natural orbital energies and occupations
                ---------------------------------------------------

              Alpha       Beta            Alpha       Beta  
            --------    --------        --------    --------
       1      0.0000      0.0000          0.6936      0.6936
       2      0.0000      0.0000          0.2764      0.2764
       3      0.0000      0.0000          0.0172      0.0172
       4      0.0000      0.0000          0.0128      0.0128

             WFN1 Final Correlation function energies and occupations
             --------------------------------------------------------

              Alpha       Beta            Alpha       Beta  
            --------    --------        --------    --------
       1      0.0000      0.0000          1.0000      1.0000
       2      0.0000      0.0000          0.0000      0.0000
       3      0.0000      0.0000          0.0000      0.0000
       4      0.0000      0.0000          0.0000      0.0000

                WFN1 Final alpha-alpha 2-matrix occupation numbers
                --------------------------------------------------


 global array: g_momo1[1:4,1:4],  handle: -990 

            1           2           3           4  
       ----------- ----------- ----------- -----------
   1       0.00000     0.00000     0.00000     0.00000
   2      -0.00000     0.00000     0.00000     0.00000
   3       0.00000     0.00000     0.00000     0.00000
   4       0.00000     0.00000     0.00000     0.00000

                 WFN1 Final beta-beta 2-matrix occupation numbers
                 ------------------------------------------------


 global array: g_momo2[1:4,1:4],  handle: -989 

            1           2           3           4  
       ----------- ----------- ----------- -----------
   1       0.00000     0.00000     0.00000     0.00000
   2      -0.00000     0.00000     0.00000     0.00000
   3       0.00000     0.00000     0.00000     0.00000
   4       0.00000     0.00000     0.00000     0.00000

                  WFN1 Final alpha Correlation Function Analysis
                  ----------------------------------------------


 global array: Ca[1:4,1:4],  handle: -981 

                     1                       2                       3                       4  
       ----------------------- ----------------------- ----------------------- -----------------------
   1       0.67262,    0.49109    -0.45495,   -0.28261     0.04471,   -0.08887    -0.09829,   -0.00341
   2      -0.50909,   -0.13116    -0.82818,   -0.15740     0.00007,    0.05173     0.09935,    0.02040
   3      -0.03733,    0.12576     0.03279,   -0.00328    -0.57777,   -0.53861     0.44066,    0.40448
   4       0.09735,   -0.05790     0.02781,   -0.02516     0.57404,   -0.18435     0.75613,   -0.22475

                   WFN1 Final beta Correlation Function Analysis
                   ---------------------------------------------


 global array: Cb[1:4,1:4],  handle: -980 

                     1                       2                       3                       4  
       ----------------------- ----------------------- ----------------------- -----------------------
   1       0.67262,    0.49109    -0.45495,   -0.28261     0.04471,   -0.08887    -0.09829,   -0.00341
   2      -0.50909,   -0.13116    -0.82818,   -0.15740     0.00007,    0.05173     0.09935,    0.02040
   3      -0.03733,    0.12576     0.03279,   -0.00328    -0.57777,   -0.53861     0.44066,    0.40448
   4       0.09735,   -0.05790     0.02781,   -0.02516     0.57404,   -0.18435     0.75613,   -0.22475

                     WFN1 Final Alpha Natural Orbital Analysis
                     -----------------------------------------

 Vector    1  Occ=6.935864D-01  E= 0.000000D+00
              MO Center=  0.0D+00,  0.0D+00, -3.1D-07, r^2= 2.0D+00
   Bfn.  Coefficient  Atom+Function         Bfn.  Coefficient  Atom+Function  
  ----- ------------  ---------------      ----- ------------  ---------------
     2     -0.480113  1 H  s                  4     -0.480113  2 H  s          
     1     -0.230423  1 H  s                  3     -0.230423  2 H  s          

 Vector    2  Occ=2.763744D-01  E= 0.000000D+00
              MO Center=  0.0D+00,  0.0D+00,  2.0D-07, r^2= 2.2D+00
   Bfn.  Coefficient  Atom+Function         Bfn.  Coefficient  Atom+Function  
  ----- ------------  ---------------      ----- ------------  ---------------
     2      0.535708  1 H  s                  4     -0.535709  2 H  s          
     1      0.302101  1 H  s                  3     -0.302101  2 H  s          

 Vector    3  Occ=1.720982D-02  E= 0.000000D+00
              MO Center=  0.0D+00,  0.0D+00, -1.6D-06, r^2= 2.1D+00
   Bfn.  Coefficient  Atom+Function         Bfn.  Coefficient  Atom+Function  
  ----- ------------  ---------------      ----- ------------  ---------------
     1      0.899139  1 H  s                  3      0.899138  2 H  s          
     2     -0.681409  1 H  s                  4     -0.681407  2 H  s          

 Vector    4  Occ=1.282936D-02  E= 0.000000D+00
              MO Center=  0.0D+00,  0.0D+00,  1.8D-06, r^2= 2.9D+00
   Bfn.  Coefficient  Atom+Function         Bfn.  Coefficient  Atom+Function  
  ----- ------------  ---------------      ----- ------------  ---------------
     2      0.972818  1 H  s                  4     -0.972819  2 H  s          
     1     -0.919080  1 H  s                  3      0.919081  2 H  s          


                     WFN1 Final Beta Natural Orbital Analysis
                     ----------------------------------------

 Vector    1  Occ=6.935864D-01  E= 0.000000D+00
              MO Center=  0.0D+00,  0.0D+00, -3.1D-07, r^2= 2.0D+00
   Bfn.  Coefficient  Atom+Function         Bfn.  Coefficient  Atom+Function  
  ----- ------------  ---------------      ----- ------------  ---------------
     2     -0.480113  1 H  s                  4     -0.480113  2 H  s          
     1     -0.230423  1 H  s                  3     -0.230423  2 H  s          

 Vector    2  Occ=2.763744D-01  E= 0.000000D+00
              MO Center=  0.0D+00,  0.0D+00,  2.0D-07, r^2= 2.2D+00
   Bfn.  Coefficient  Atom+Function         Bfn.  Coefficient  Atom+Function  
  ----- ------------  ---------------      ----- ------------  ---------------
     2      0.535708  1 H  s                  4     -0.535709  2 H  s          
     1      0.302101  1 H  s                  3     -0.302101  2 H  s          

 Vector    3  Occ=1.720982D-02  E= 0.000000D+00
              MO Center=  0.0D+00,  0.0D+00, -1.6D-06, r^2= 2.1D+00
   Bfn.  Coefficient  Atom+Function         Bfn.  Coefficient  Atom+Function  
  ----- ------------  ---------------      ----- ------------  ---------------
     1      0.899139  1 H  s                  3      0.899138  2 H  s          
     2     -0.681409  1 H  s                  4     -0.681407  2 H  s          

 Vector    4  Occ=1.282936D-02  E= 0.000000D+00
              MO Center=  0.0D+00,  0.0D+00,  1.8D-06, r^2= 2.9D+00
   Bfn.  Coefficient  Atom+Function         Bfn.  Coefficient  Atom+Function  
  ----- ------------  ---------------      ----- ------------  ---------------
     2      0.972818  1 H  s                  4     -0.972819  2 H  s          
     1     -0.919080  1 H  s                  3      0.919081  2 H  s          


 Task  times  cpu:       11.2s     wall:       17.2s
 Summary of allocated global arrays
-----------------------------------
  No active global arrays



                         GA Statistics for process    0
                         ------------------------------

       create   destroy   get      put      acc     scatter   gather  read&inc
calls:   44       44     6.22e+06 1.31e+04 1.71e+04    0        0       11     
number of processes/call 1.00e+00 1.00e+00 1.00e+00 0.00e+00 0.00e+00
bytes total:             7.99e+08 2.18e+06 2.72e+06 0.00e+00 0.00e+00 8.80e+01
bytes remote:            0.00e+00 0.00e+00 0.00e+00 0.00e+00 0.00e+00 0.00e+00
Max memory consumed for GA by this process: 10624 bytes
MA_summarize_allocated_blocks: starting scan ...
MA_summarize_allocated_blocks: scan completed: 0 heap blocks, 0 stack blocks
MA usage statistics:

	allocation statistics:
					      heap	     stack
					      ----	     -----
	current number of blocks	         0	         0
	maximum number of blocks	        19	        17
	current total bytes		         0	         0
	maximum total bytes		   3204344	  22508664
	maximum total K-bytes		      3205	     22509
	maximum total M-bytes		         4	        23


                                NWChem Input Module
                                -------------------





                                     CITATION
                                     --------
                Please cite the following reference when publishing
                           results obtained with NWChem:

                 M. Valiev, E.J. Bylaska, N. Govind, K. Kowalski,
              T.P. Straatsma, H.J.J. van Dam, D. Wang, J. Nieplocha,
                        E. Apra, T.L. Windus, W.A. de Jong
                 "NWChem: a comprehensive and scalable open-source
                  solution for large scale molecular simulations"
                      Comput. Phys. Commun. 181, 1477 (2010)
                           doi:10.1016/j.cpc.2010.04.018

                                      AUTHORS
                                      -------
          E. Apra, E. J. Bylaska, W. A. de Jong, N. Govind, K. Kowalski,
       T. P. Straatsma, M. Valiev, H. J. J. van Dam, D. Wang, T. L. Windus,
        J. Hammond, J. Autschbach, K. Bhaskaran-Nair, J. Brabec, K. Lopata,
    S. A. Fischer, S. Krishnamoorthy, M. Jacquelin, W. Ma, M. Klemm, O. Villa,
      Y. Chen, V. Anisimov, F. Aquino, S. Hirata, M. T. Hackler, V. Konjkov,
      T. Risthaus, M. Malagoli, A. Marenich, A. Otero-de-la-Roza, J. Mullin,
        P. Nichols, R. Peverati, J. Pittner, Y. Zhao, P.-D. Fan, A. Fonari,
       M. Williamson, R. J. Harrison, J. R. Rehr, M. Dupuis, D. Silverstein,
    D. M. A. Smith, J. Nieplocha, V. Tipparaju, M. Krishnan, B. E. Van Kuiken,
        A. Vazquez-Mayagoitia, L. Jensen, M. Swart, Q. Wu, T. Van Voorhis,
     A. A. Auer, M. Nooijen, L. D. Crosby, E. Brown, G. Cisneros, G. I. Fann,
   H. Fruchtl, J. Garza, K. Hirao, R. A. Kendall, J. A. Nichols, K. Tsemekhman,
    K. Wolinski, J. Anchell, D. E. Bernholdt, P. Borowski, T. Clark, D. Clerc,
   H. Dachsel, M. J. O. Deegan, K. Dyall, D. Elwood, E. Glendening, M. Gutowski,
   A. C. Hess, J. Jaffe, B. G. Johnson, J. Ju, R. Kobayashi, R. Kutteh, Z. Lin,
   R. Littlefield, X. Long, B. Meng, T. Nakajima, S. Niu, L. Pollack, M. Rosing,
   K. Glaesemann, G. Sandrone, M. Stave, H. Taylor, G. Thomas, J. H. van Lenthe,
                               A. T. Wong, Z. Zhang.

 Total times  cpu:       11.2s     wall:       17.2s
