 argument  1 = input-wf.nw



============================== echo of input deck ==============================
echo
start wfn1_dat
geometry units au noautoz
  H 0 0 -3.09434600000000000000
  H 0 0  3.09434600000000000000
  symmetry cs
end
basis
  H library 6-31g
end
set wfn1:input_vectors "atomic"
set wfn1:solver "monte-carlo"
set wfn1:print_error F
set wfn1:t_initial 0.1
#set wfn1:corr_expr "wfn1_mx"
set wfn1:corr_expr "wfn1c"
set wfn1:t_bath 0.0
set wfn1:maxit  20000
task wfn1 energy
================================================================================


                                         
                                         


              Northwest Computational Chemistry Package (NWChem) 6.8
              ------------------------------------------------------


                    Environmental Molecular Sciences Laboratory
                       Pacific Northwest National Laboratory
                                Richland, WA 99352

                              Copyright (c) 1994-2015
                       Pacific Northwest National Laboratory
                            Battelle Memorial Institute

             NWChem is an open-source computational chemistry package
                        distributed under the terms of the
                      Educational Community License (ECL) 2.0
             A copy of the license is included with this distribution
                              in the LICENSE.TXT file

                                  ACKNOWLEDGMENT
                                  --------------

            This software and its documentation were developed at the
            EMSL at Pacific Northwest National Laboratory, a multiprogram
            national laboratory, operated for the U.S. Department of Energy
            by Battelle under Contract Number DE-AC05-76RL01830. Support
            for this work was provided by the Department of Energy Office
            of Biological and Environmental Research, Office of Basic
            Energy Sciences, and the Office of Advanced Scientific Computing.


           Job information
           ---------------

    hostname        = erato
    program         = ../../../bin/LINUX64/nwchem
    date            = Mon Mar  1 01:44:33 2021

    compiled        = Sun_Feb_28_18:02:42_2021
    source          = /home/hvandam/nwchem-1-wfn1
    nwchem branch   = Development
    nwchem revision = nwchem_on_git-124-gad72d19fff205e319ffbbf2bca37a04ded6ad57b
    ga revision     = nwchem_on_git-124-gad72d19
    use scalapack   = F
    input           = input-wf.nw
    prefix          = wfn1_dat.
    data base       = ./wfn1_dat.db
    status          = startup
    nproc           =        1
    time left       =     -1s



           Memory information
           ------------------

    heap     =   13107198 doubles =    100.0 Mbytes
    stack    =   13107195 doubles =    100.0 Mbytes
    global   =   26214400 doubles =    200.0 Mbytes (distinct from heap & stack)
    total    =   52428793 doubles =    400.0 Mbytes
    verify   = yes
    hardfail = no 


           Directory information
           ---------------------

  0 permanent = .
  0 scratch   = .




                                NWChem Input Module
                                -------------------


 Turning off AUTOSYM since
 SYMMETRY directive was detected!



                             Geometry "geometry" -> ""
                             -------------------------

 Output coordinates in a.u. (scale by  1.000000000 to convert to a.u.)

  No.       Tag          Charge          X              Y              Z
 ---- ---------------- ---------- -------------- -------------- --------------
    1 H                    1.0000     0.00000000     0.00000000    -3.09434600
    2 H                    1.0000     0.00000000     0.00000000     3.09434600

      Atomic Mass 
      ----------- 

      H                  1.007825


 Effective nuclear repulsion energy (a.u.)       0.1615850328

            Nuclear Dipole moment (a.u.) 
            ----------------------------
        X                 Y               Z
 ---------------- ---------------- ----------------
     0.0000000000     0.0000000000     0.0000000000

      Symmetry information
      --------------------

 Group name             Cs        
 Group number              2
 Group order               2
 No. of unique centers     1

      Symmetry unique atoms

     1


            XYZ format geometry
            -------------------
     2
 geometry
 H                     0.00000000     0.00000000    -1.63745750
 H                     0.00000000     0.00000000     1.63745750

                      Basis "ao basis" -> "" (cartesian)
                      -----
  H (Hydrogen)
  ------------
            Exponent  Coefficients 
       -------------- ---------------------------------------------------------
  1 S  1.87311370E+01  0.033495
  1 S  2.82539370E+00  0.234727
  1 S  6.40121700E-01  0.813757

  2 S  1.61277800E-01  1.000000



 Summary of "ao basis" -> "" (cartesian)
 ------------------------------------------------------------------------------
       Tag                 Description            Shells   Functions and Types
 ---------------- ------------------------------  ------  ---------------------
 H                           6-31g                   2        2   2s



                                NWChem WFN1 Module
                                ------------------



          No. of electrons :     2
           Alpha electrons :     1
            Beta electrons :     1
          Charge           :     0
          Spin multiplicity:     1

 HvD: wfn1_inpdft
 HvD: nquad_task =                     1
 HvD: iangquad   =                     0
 HvD: gridtype   = user      
 HvD: leb        =  T
 HvD: radgrid    = murakn    
 HvD: trunc_neigh=  T
 HvD: lssw       =  T
 HvD: whichssw   = erf1    
 HvD: mxnrad     =                     0
 HvD: mxnang     =                     0
 HVD: wfn1: movecs_in  = atomic                                                                                                                                                                                                                                                          
 HVD: wfn1: movecs_out = ./wfn1_dat.movecs                                                                                                                                                                                                                                               

      Superposition of Atomic Density Guess
      -------------------------------------

 Sum of atomic energies:          -0.99646508

      Non-variational initial energy
      ------------------------------

 Total energy =      -0.682240
 1-e energy   =      -1.319636
 2-e energy   =       0.475810
 HOMO         =      -0.203295
 LUMO         =      -0.178766

 iteration              energy           error
 ---------              ------           -----
         0         -0.88477880        0.080000
         1         -0.88731149        0.080000
         2         -0.89242333        0.080000
         3         -0.89326760        0.080000
         4         -0.89732058        0.080000
         5         -0.90347993        0.080000
         6         -0.90758193        0.080000
         7         -0.90974959        0.080000
         8         -0.91565759        0.080000
         9         -0.91772131        0.080000
        10         -0.92135406        0.080000
        11         -0.92483205        0.080000
        12         -0.92483738        0.080000
        13         -0.92642789        0.080000
        14         -0.92658751        0.080000
        15         -0.92759249        0.080000
        16         -0.93050480        0.080000
        17         -0.93449390        0.080000
        18         -0.93866305        0.080000
        19         -0.94203606        0.080000
        20         -0.94212939        0.080000
        21         -0.94376713        0.080000
        22         -0.94642812        0.080000
        23         -0.94730608        0.080000
        24         -0.94867716        0.080000
        25         -0.94875629        0.080000
        26         -0.94911650        0.080000
        27         -0.94988819        0.080000
        28         -0.95080278        0.080000
        29         -0.95111551        0.080000
        30         -0.95130629        0.080000
        31         -0.95166208        0.080000
        32         -0.95169098        0.080000
        33         -0.95181742        0.080000
        34         -0.95199641        0.080000
        35         -0.95204042        0.080000
        36         -0.95208013        0.080000
        37         -0.95209123        0.080000
        38         -0.95212097        0.080000
        39         -0.95213454        0.080000
        40         -0.95219076        0.063496
        41         -0.95221161        0.040000
        42         -0.95224319        0.040000
        43         -0.95224622        0.031748
        44         -0.95224805        0.031748
        45         -0.95227087        0.031748
        46         -0.95227844        0.031748
        47         -0.95228264        0.031748
        48         -0.95228308        0.031748
        49         -0.95228451        0.025198
        50         -0.95229016        0.025198
        51         -0.95230048        0.025198
        52         -0.95230370        0.025198
        53         -0.95230510        0.020000
        54         -0.95230879        0.020000
        55         -0.95231113        0.020000
        56         -0.95231646        0.015874
        57         -0.95231850        0.015874
        58         -0.95232001        0.015874
        59         -0.95232076        0.010000
        60         -0.95232122        0.010000
        61         -0.95232190        0.010000
        62         -0.95232230        0.010000
        63         -0.95232397        0.010000
        64         -0.95232433        0.010000
        65         -0.95232563        0.010000
        66         -0.95232658        0.010000
        67         -0.95232673        0.006300
        68         -0.95232687        0.005000
        69         -0.95232699        0.005000
        70         -0.95232712        0.005000
        71         -0.95232749        0.005000
        72         -0.95232761        0.003969
        73         -0.95232765        0.003969
        74         -0.95232773        0.003969
        75         -0.95232773        0.003150
        76         -0.95232773        0.003150
        77         -0.95232779        0.003150
        78         -0.95232825        0.003150
        79         -0.95232831        0.003150
        80         -0.95232831        0.003150
        81         -0.95232839        0.003150
        82         -0.95232844        0.002500
        83         -0.95232848        0.002500
        84         -0.95232849        0.001984
        85         -0.95232852        0.001984
        86         -0.95232854        0.001984
        87         -0.95232859        0.001984
        88         -0.95232868        0.001984
        89         -0.95232872        0.001984
        90         -0.95232873        0.001984
        91         -0.95232873        0.001984
        92         -0.95232873        0.001575
        93         -0.95232874        0.001575
        94         -0.95232874        0.000787
        95         -0.95232875        0.000787
        96         -0.95232876        0.000787
        97         -0.95232876        0.000787
        98         -0.95232876        0.000787
        99         -0.95232877        0.000787
       100         -0.95232877        0.000625
       101         -0.95232877        0.000625
       102         -0.95232878        0.000625
       103         -0.95232879        0.000625
       104         -0.95232879        0.000625
       105         -0.95232879        0.000625
       106         -0.95232879        0.000496
       107         -0.95232880        0.000496
       108         -0.95232880        0.000394
       109         -0.95232880        0.000394
       110         -0.95232880        0.000394
       111         -0.95232880        0.000394
       112         -0.95232880        0.000394
       113         -0.95232880        0.000394
       114         -0.95232881        0.000394
       115         -0.95232881        0.000394
       116         -0.95232881        0.000313
       117         -0.95232881        0.000313
       118         -0.95232881        0.000313
       119         -0.95232881        0.000313
       120         -0.95232881        0.000313
       121         -0.95232881        0.000313
       122         -0.95232881        0.000313
       123         -0.95232881        0.000248
       124         -0.95232881        0.000248
       125         -0.95232881        0.000197
       126         -0.95232881        0.000197
       127         -0.95232881        0.000197
       128         -0.95232881        0.000098
       129         -0.95232881        0.000098
       130         -0.95232881        0.000098
       131         -0.95232881        0.000098
       132         -0.95232881        0.000062
       133         -0.95232881        0.000062
       134         -0.95232881        0.000049
       135         -0.95232881        0.000049
       136         -0.95232881        0.000039
       137         -0.95232881        0.000025
       138         -0.95232881        0.000025
       139         -0.95232881        0.000020
       140         -0.95232881        0.000020
       141         -0.95232881        0.000020
       142         -0.95232881        0.000012
       143         -0.95232881        0.000010
       144         -0.95232881        0.000010
       145         -0.95232881        0.000008
       146         -0.95232881        0.000008
       147         -0.95232881        0.000008
       148         -0.95232881        0.000008
       149         -0.95232881        0.000008
       150         -0.95232881        0.000008
       151         -0.95232881        0.000008
       152         -0.95232881        0.000006
       153         -0.95232881        0.000005
       154         -0.95232881        0.000005
       155         -0.95232881        0.000005
       156         -0.95232881        0.000005
       157         -0.95232881        0.000005
       158         -0.95232881        0.000002
       159         -0.95232881        0.000002
       160         -0.95232881        0.000002
       161         -0.95232881        0.000002
       162         -0.95232881        0.000002
       163         -0.95232881        0.000001
       164         -0.95232881        0.000001
       165         -0.95232881        0.000001
       166         -0.95232881        0.000001
       167         -0.95232881        0.000001

 Reached Convergence

 WFN1                     :
 --------------------------
 Total WFN1 energy  =          -0.9523288141
 1-Electron energy  =          -1.2513220965
 2-Electron energy  =           0.3759745638
 Correlation energy =          -0.2385663141
 DFT XC energy      =           0.0000000000
 Entropy energy     =           0.0000000000
 Nuclear energy     =           0.1615850328

 conventional Hartree-Fock:
 --------------------------
 Total SCF energy  =          -0.8576684219
 2-Electron energy =           0.4706349560

                WFN1 Final Natural orbital energies and occupations
                ---------------------------------------------------

              Alpha       Beta            Alpha       Beta  
            --------    --------        --------    --------
       1      0.0000      0.0000          0.5359      0.5359
       2      0.0000      0.0000          0.4305      0.4305
       3      0.0000      0.0000          0.0182      0.0182
       4      0.0000      0.0000          0.0154      0.0154

             WFN1 Final Correlation function energies and occupations
             --------------------------------------------------------

              Alpha       Beta            Alpha       Beta  
            --------    --------        --------    --------
       1      0.0000      0.0000          1.0000      1.0000
       2      0.0000      0.0000          0.0000      0.0000
       3      0.0000      0.0000          0.0000      0.0000
       4      0.0000      0.0000          0.0000      0.0000

                WFN1 Final alpha-alpha 2-matrix occupation numbers
                --------------------------------------------------


 global array: g_momo1[1:4,1:4],  handle: -990 

            1           2           3           4  
       ----------- ----------- ----------- -----------
   1       0.00000     0.00000     0.00000     0.00000
   2       0.00000     0.00000     0.00000     0.00000
   3       0.00000     0.00000     0.00000     0.00000
   4       0.00000     0.00000     0.00000     0.00000

                 WFN1 Final beta-beta 2-matrix occupation numbers
                 ------------------------------------------------


 global array: g_momo2[1:4,1:4],  handle: -989 

            1           2           3           4  
       ----------- ----------- ----------- -----------
   1       0.00000     0.00000     0.00000     0.00000
   2       0.00000     0.00000     0.00000     0.00000
   3       0.00000     0.00000     0.00000     0.00000
   4       0.00000     0.00000     0.00000     0.00000

                  WFN1 Final alpha Correlation Function Analysis
                  ----------------------------------------------


 global array: Ca[1:4,1:4],  handle: -977 

                     1                       2                       3                       4  
       ----------------------- ----------------------- ----------------------- -----------------------
   1      -0.73164,   -0.02540    -0.66185,   -0.02358     0.12207,    0.06555     0.01853,   -0.07692
   2      -0.25383,    0.60503     0.28964,   -0.68508     0.01355,   -0.00945    -0.09952,   -0.07808
   3       0.02809,    0.13196    -0.04698,    0.05153    -0.62996,    0.54692     0.38629,   -0.36296
   4       0.12215,    0.02106    -0.00901,   -0.05677     0.42853,   -0.31768     0.66520,   -0.50427

                   WFN1 Final beta Correlation Function Analysis
                   ---------------------------------------------


 global array: Cb[1:4,1:4],  handle: -976 

                     1                       2                       3                       4  
       ----------------------- ----------------------- ----------------------- -----------------------
   1      -0.73164,   -0.02540    -0.66185,   -0.02358     0.12207,    0.06555     0.01853,   -0.07692
   2      -0.25383,    0.60503     0.28964,   -0.68508     0.01355,   -0.00945    -0.09952,   -0.07808
   3       0.02809,    0.13196    -0.04698,    0.05153    -0.62996,    0.54692     0.38629,   -0.36296
   4       0.12215,    0.02106    -0.00901,   -0.05677     0.42853,   -0.31768     0.66520,   -0.50427

                     WFN1 Final Alpha Natural Orbital Analysis
                     -----------------------------------------

 Vector    1  Occ=5.359354D-01  E= 0.000000D+00
              MO Center=  0.0D+00,  0.0D+00,  2.1D-08, r^2= 3.5D+00
   Bfn.  Coefficient  Atom+Function         Bfn.  Coefficient  Atom+Function  
  ----- ------------  ---------------      ----- ------------  ---------------
     2     -0.515258  1 H  s                  4     -0.515258  2 H  s          
     1     -0.240779  1 H  s                  3     -0.240779  2 H  s          

 Vector    2  Occ=4.304969D-01  E= 0.000000D+00
              MO Center=  0.0D+00,  0.0D+00, -2.2D-08, r^2= 3.6D+00
   Bfn.  Coefficient  Atom+Function         Bfn.  Coefficient  Atom+Function  
  ----- ------------  ---------------      ----- ------------  ---------------
     2     -0.511125  1 H  s                  4      0.511125  2 H  s          
     1     -0.267748  1 H  s                  3      0.267748  2 H  s          

 Vector    3  Occ=1.820279D-02  E= 0.000000D+00
              MO Center=  0.0D+00,  0.0D+00, -2.8D-07, r^2= 3.6D+00
   Bfn.  Coefficient  Atom+Function         Bfn.  Coefficient  Atom+Function  
  ----- ------------  ---------------      ----- ------------  ---------------
     1     -0.896747  1 H  s                  3     -0.896747  2 H  s          
     2      0.747706  1 H  s                  4      0.747706  2 H  s          

 Vector    4  Occ=1.536487D-02  E= 0.000000D+00
              MO Center=  0.0D+00,  0.0D+00,  2.8D-07, r^2= 4.0D+00
   Bfn.  Coefficient  Atom+Function         Bfn.  Coefficient  Atom+Function  
  ----- ------------  ---------------      ----- ------------  ---------------
     1     -0.913266  1 H  s                  3      0.913266  2 H  s          
     2      0.829301  1 H  s                  4     -0.829301  2 H  s          


                     WFN1 Final Beta Natural Orbital Analysis
                     ----------------------------------------

 Vector    1  Occ=5.359354D-01  E= 0.000000D+00
              MO Center=  0.0D+00,  0.0D+00,  2.1D-08, r^2= 3.5D+00
   Bfn.  Coefficient  Atom+Function         Bfn.  Coefficient  Atom+Function  
  ----- ------------  ---------------      ----- ------------  ---------------
     2     -0.515258  1 H  s                  4     -0.515258  2 H  s          
     1     -0.240779  1 H  s                  3     -0.240779  2 H  s          

 Vector    2  Occ=4.304969D-01  E= 0.000000D+00
              MO Center=  0.0D+00,  0.0D+00, -2.2D-08, r^2= 3.6D+00
   Bfn.  Coefficient  Atom+Function         Bfn.  Coefficient  Atom+Function  
  ----- ------------  ---------------      ----- ------------  ---------------
     2     -0.511125  1 H  s                  4      0.511125  2 H  s          
     1     -0.267748  1 H  s                  3      0.267748  2 H  s          

 Vector    3  Occ=1.820279D-02  E= 0.000000D+00
              MO Center=  0.0D+00,  0.0D+00, -2.8D-07, r^2= 3.6D+00
   Bfn.  Coefficient  Atom+Function         Bfn.  Coefficient  Atom+Function  
  ----- ------------  ---------------      ----- ------------  ---------------
     1     -0.896747  1 H  s                  3     -0.896747  2 H  s          
     2      0.747706  1 H  s                  4      0.747706  2 H  s          

 Vector    4  Occ=1.536487D-02  E= 0.000000D+00
              MO Center=  0.0D+00,  0.0D+00,  2.8D-07, r^2= 4.0D+00
   Bfn.  Coefficient  Atom+Function         Bfn.  Coefficient  Atom+Function  
  ----- ------------  ---------------      ----- ------------  ---------------
     1     -0.913266  1 H  s                  3      0.913266  2 H  s          
     2      0.829301  1 H  s                  4     -0.829301  2 H  s          


 Task  times  cpu:       11.0s     wall:       17.0s
 Summary of allocated global arrays
-----------------------------------
  No active global arrays



                         GA Statistics for process    0
                         ------------------------------

       create   destroy   get      put      acc     scatter   gather  read&inc
calls:   44       44     6.10e+06 1.29e+04 1.67e+04    0        0       11     
number of processes/call 1.00e+00 1.00e+00 1.00e+00 0.00e+00 0.00e+00
bytes total:             7.84e+08 2.14e+06 2.67e+06 0.00e+00 0.00e+00 8.80e+01
bytes remote:            0.00e+00 0.00e+00 0.00e+00 0.00e+00 0.00e+00 0.00e+00
Max memory consumed for GA by this process: 10624 bytes
MA_summarize_allocated_blocks: starting scan ...
MA_summarize_allocated_blocks: scan completed: 0 heap blocks, 0 stack blocks
MA usage statistics:

	allocation statistics:
					      heap	     stack
					      ----	     -----
	current number of blocks	         0	         0
	maximum number of blocks	        19	        17
	current total bytes		         0	         0
	maximum total bytes		   3204344	  22508664
	maximum total K-bytes		      3205	     22509
	maximum total M-bytes		         4	        23


                                NWChem Input Module
                                -------------------





                                     CITATION
                                     --------
                Please cite the following reference when publishing
                           results obtained with NWChem:

                 M. Valiev, E.J. Bylaska, N. Govind, K. Kowalski,
              T.P. Straatsma, H.J.J. van Dam, D. Wang, J. Nieplocha,
                        E. Apra, T.L. Windus, W.A. de Jong
                 "NWChem: a comprehensive and scalable open-source
                  solution for large scale molecular simulations"
                      Comput. Phys. Commun. 181, 1477 (2010)
                           doi:10.1016/j.cpc.2010.04.018

                                      AUTHORS
                                      -------
          E. Apra, E. J. Bylaska, W. A. de Jong, N. Govind, K. Kowalski,
       T. P. Straatsma, M. Valiev, H. J. J. van Dam, D. Wang, T. L. Windus,
        J. Hammond, J. Autschbach, K. Bhaskaran-Nair, J. Brabec, K. Lopata,
    S. A. Fischer, S. Krishnamoorthy, M. Jacquelin, W. Ma, M. Klemm, O. Villa,
      Y. Chen, V. Anisimov, F. Aquino, S. Hirata, M. T. Hackler, V. Konjkov,
      T. Risthaus, M. Malagoli, A. Marenich, A. Otero-de-la-Roza, J. Mullin,
        P. Nichols, R. Peverati, J. Pittner, Y. Zhao, P.-D. Fan, A. Fonari,
       M. Williamson, R. J. Harrison, J. R. Rehr, M. Dupuis, D. Silverstein,
    D. M. A. Smith, J. Nieplocha, V. Tipparaju, M. Krishnan, B. E. Van Kuiken,
        A. Vazquez-Mayagoitia, L. Jensen, M. Swart, Q. Wu, T. Van Voorhis,
     A. A. Auer, M. Nooijen, L. D. Crosby, E. Brown, G. Cisneros, G. I. Fann,
   H. Fruchtl, J. Garza, K. Hirao, R. A. Kendall, J. A. Nichols, K. Tsemekhman,
    K. Wolinski, J. Anchell, D. E. Bernholdt, P. Borowski, T. Clark, D. Clerc,
   H. Dachsel, M. J. O. Deegan, K. Dyall, D. Elwood, E. Glendening, M. Gutowski,
   A. C. Hess, J. Jaffe, B. G. Johnson, J. Ju, R. Kobayashi, R. Kutteh, Z. Lin,
   R. Littlefield, X. Long, B. Meng, T. Nakajima, S. Niu, L. Pollack, M. Rosing,
   K. Glaesemann, G. Sandrone, M. Stave, H. Taylor, G. Thomas, J. H. van Lenthe,
                               A. T. Wong, Z. Zhang.

 Total times  cpu:       11.0s     wall:       17.0s
