 argument  1 = input-wf.nw



============================== echo of input deck ==============================
echo
start wfn1_dat
geometry units au noautoz
  H 0 0 -1.84434600000000000000
  H 0 0  1.84434600000000000000
  symmetry cs
end
basis
  H library 6-31g
end
set wfn1:input_vectors "atomic"
set wfn1:solver "monte-carlo"
set wfn1:print_error F
set wfn1:t_initial 0.1
#set wfn1:corr_expr "wfn1_mx"
set wfn1:corr_expr "wfn1c"
set wfn1:t_bath 0.0
set wfn1:maxit  20000
task wfn1 energy
================================================================================


                                         
                                         


              Northwest Computational Chemistry Package (NWChem) 6.8
              ------------------------------------------------------


                    Environmental Molecular Sciences Laboratory
                       Pacific Northwest National Laboratory
                                Richland, WA 99352

                              Copyright (c) 1994-2015
                       Pacific Northwest National Laboratory
                            Battelle Memorial Institute

             NWChem is an open-source computational chemistry package
                        distributed under the terms of the
                      Educational Community License (ECL) 2.0
             A copy of the license is included with this distribution
                              in the LICENSE.TXT file

                                  ACKNOWLEDGMENT
                                  --------------

            This software and its documentation were developed at the
            EMSL at Pacific Northwest National Laboratory, a multiprogram
            national laboratory, operated for the U.S. Department of Energy
            by Battelle under Contract Number DE-AC05-76RL01830. Support
            for this work was provided by the Department of Energy Office
            of Biological and Environmental Research, Office of Basic
            Energy Sciences, and the Office of Advanced Scientific Computing.


           Job information
           ---------------

    hostname        = erato
    program         = ../../../bin/LINUX64/nwchem
    date            = Mon Mar  1 01:37:48 2021

    compiled        = Sun_Feb_28_18:02:42_2021
    source          = /home/hvandam/nwchem-1-wfn1
    nwchem branch   = Development
    nwchem revision = nwchem_on_git-124-gad72d19fff205e319ffbbf2bca37a04ded6ad57b
    ga revision     = nwchem_on_git-124-gad72d19
    use scalapack   = F
    input           = input-wf.nw
    prefix          = wfn1_dat.
    data base       = ./wfn1_dat.db
    status          = startup
    nproc           =        1
    time left       =     -1s



           Memory information
           ------------------

    heap     =   13107200 doubles =    100.0 Mbytes
    stack    =   13107197 doubles =    100.0 Mbytes
    global   =   26214400 doubles =    200.0 Mbytes (distinct from heap & stack)
    total    =   52428797 doubles =    400.0 Mbytes
    verify   = yes
    hardfail = no 


           Directory information
           ---------------------

  0 permanent = .
  0 scratch   = .




                                NWChem Input Module
                                -------------------


 Turning off AUTOSYM since
 SYMMETRY directive was detected!



                             Geometry "geometry" -> ""
                             -------------------------

 Output coordinates in a.u. (scale by  1.000000000 to convert to a.u.)

  No.       Tag          Charge          X              Y              Z
 ---- ---------------- ---------- -------------- -------------- --------------
    1 H                    1.0000     0.00000000     0.00000000    -1.84434600
    2 H                    1.0000     0.00000000     0.00000000     1.84434600

      Atomic Mass 
      ----------- 

      H                  1.007825


 Effective nuclear repulsion energy (a.u.)       0.2710988068

            Nuclear Dipole moment (a.u.) 
            ----------------------------
        X                 Y               Z
 ---------------- ---------------- ----------------
     0.0000000000     0.0000000000     0.0000000000

      Symmetry information
      --------------------

 Group name             Cs        
 Group number              2
 Group order               2
 No. of unique centers     1

      Symmetry unique atoms

     1


            XYZ format geometry
            -------------------
     2
 geometry
 H                     0.00000000     0.00000000    -0.97598594
 H                     0.00000000     0.00000000     0.97598594

                      Basis "ao basis" -> "" (cartesian)
                      -----
  H (Hydrogen)
  ------------
            Exponent  Coefficients 
       -------------- ---------------------------------------------------------
  1 S  1.87311370E+01  0.033495
  1 S  2.82539370E+00  0.234727
  1 S  6.40121700E-01  0.813757

  2 S  1.61277800E-01  1.000000



 Summary of "ao basis" -> "" (cartesian)
 ------------------------------------------------------------------------------
       Tag                 Description            Shells   Functions and Types
 ---------------- ------------------------------  ------  ---------------------
 H                           6-31g                   2        2   2s



                                NWChem WFN1 Module
                                ------------------



          No. of electrons :     2
           Alpha electrons :     1
            Beta electrons :     1
          Charge           :     0
          Spin multiplicity:     1

 HvD: wfn1_inpdft
 HvD: nquad_task =                     1
 HvD: iangquad   =                     0
 HvD: gridtype   = user      
 HvD: leb        =  T
 HvD: radgrid    = murakn    
 HvD: trunc_neigh=  T
 HvD: lssw       =  T
 HvD: whichssw   = erf1    
 HvD: mxnrad     =                     0
 HvD: mxnang     =                     0
 HVD: wfn1: movecs_in  = atomic                                                                                                                                                                                                                                                          
 HVD: wfn1: movecs_out = ./wfn1_dat.movecs                                                                                                                                                                                                                                               

      Superposition of Atomic Density Guess
      -------------------------------------

 Sum of atomic energies:          -0.99646508

      Non-variational initial energy
      ------------------------------

 Total energy =      -0.695553
 1-e energy   =      -1.537931
 2-e energy   =       0.571278
 HOMO         =      -0.272517
 LUMO         =      -0.100408

 iteration              energy           error
 ---------              ------           -----
         0         -0.94715475        0.080000
         1         -0.95102672        0.080000
         2         -0.95116124        0.080000
         3         -0.95413181        0.080000
         4         -0.95970891        0.080000
         5         -0.96132239        0.080000
         6         -0.96757080        0.080000
         7         -0.96873433        0.080000
         8         -0.96896897        0.080000
         9         -0.97118129        0.080000
        10         -0.97151364        0.080000
        11         -0.97371607        0.080000
        12         -0.97445885        0.080000
        13         -0.97594504        0.080000
        14         -0.97855424        0.080000
        15         -0.97891933        0.080000
        16         -0.97905222        0.080000
        17         -0.97975299        0.080000
        18         -0.98095888        0.080000
        19         -0.98172655        0.080000
        20         -0.98180696        0.080000
        21         -0.98256596        0.080000
        22         -0.98286655        0.080000
        23         -0.98361463        0.080000
        24         -0.98531686        0.080000
        25         -0.98650163        0.080000
        26         -0.98693944        0.080000
        27         -0.98789180        0.080000
        28         -0.98851979        0.080000
        29         -0.98920048        0.080000
        30         -0.98968448        0.080000
        31         -0.99026413        0.080000
        32         -0.99030372        0.080000
        33         -0.99036101        0.080000
        34         -0.99211444        0.080000
        35         -0.99249703        0.080000
        36         -0.99276856        0.080000
        37         -0.99280508        0.080000
        38         -0.99333016        0.080000
        39         -0.99379257        0.080000
        40         -0.99423693        0.080000
        41         -0.99441561        0.080000
        42         -0.99452074        0.080000
        43         -0.99464482        0.080000
        44         -0.99494037        0.080000
        45         -0.99501668        0.080000
        46         -0.99506535        0.080000
        47         -0.99518672        0.080000
        48         -0.99520070        0.080000
        49         -0.99521260        0.080000
        50         -0.99537000        0.080000
        51         -0.99541759        0.080000
        52         -0.99548399        0.080000
        53         -0.99553623        0.063496
        54         -0.99554405        0.063496
        55         -0.99554901        0.050397
        56         -0.99556068        0.050397
        57         -0.99556238        0.050397
        58         -0.99557719        0.050397
        59         -0.99559168        0.050397
        60         -0.99561102        0.050397
        61         -0.99562870        0.050397
        62         -0.99563152        0.050397
        63         -0.99564326        0.031748
        64         -0.99564859        0.025198
        65         -0.99564949        0.015874
        66         -0.99564957        0.015874
        67         -0.99565106        0.015874
        68         -0.99565485        0.015874
        69         -0.99565768        0.015874
        70         -0.99566540        0.015874
        71         -0.99566552        0.015874
        72         -0.99566563        0.015874
        73         -0.99566665        0.015874
        74         -0.99566676        0.012599
        75         -0.99566902        0.012599
        76         -0.99566915        0.010000
        77         -0.99566966        0.010000
        78         -0.99566989        0.010000
        79         -0.99567031        0.010000
        80         -0.99567044        0.010000
        81         -0.99567077        0.007937
        82         -0.99567122        0.007937
        83         -0.99567148        0.007937
        84         -0.99567154        0.007937
        85         -0.99567208        0.007937
        86         -0.99567278        0.005000
        87         -0.99567287        0.005000
        88         -0.99567320        0.005000
        89         -0.99567321        0.003969
        90         -0.99567330        0.003969
        91         -0.99567338        0.003969
        92         -0.99567360        0.003150
        93         -0.99567362        0.003150
        94         -0.99567371        0.001984
        95         -0.99567385        0.001984
        96         -0.99567388        0.001984
        97         -0.99567404        0.001984
        98         -0.99567422        0.001984
        99         -0.99567425        0.001984
       100         -0.99567427        0.001984
       101         -0.99567437        0.001984
       102         -0.99567447        0.001984
       103         -0.99567448        0.001984
       104         -0.99567458        0.001984
       105         -0.99567462        0.001984
       106         -0.99567462        0.001984
       107         -0.99567468        0.001984
       108         -0.99567470        0.001575
       109         -0.99567475        0.001575
       110         -0.99567475        0.001575
       111         -0.99567483        0.001575
       112         -0.99567483        0.001575
       113         -0.99567484        0.001575
       114         -0.99567485        0.001575
       115         -0.99567492        0.001575
       116         -0.99567496        0.001575
       117         -0.99567502        0.001575
       118         -0.99567504        0.001575
       119         -0.99567505        0.001575
       120         -0.99567508        0.001575
       121         -0.99567511        0.001575
       122         -0.99567514        0.001575
       123         -0.99567517        0.001575
       124         -0.99567525        0.001575
       125         -0.99567527        0.001575
       126         -0.99567529        0.001575
       127         -0.99567533        0.001575
       128         -0.99567538        0.001575
       129         -0.99567539        0.001250
       130         -0.99567539        0.000992
       131         -0.99567539        0.000992
       132         -0.99567542        0.000992
       133         -0.99567543        0.000992
       134         -0.99567544        0.000787
       135         -0.99567545        0.000787
       136         -0.99567546        0.000787
       137         -0.99567547        0.000496
       138         -0.99567547        0.000496
       139         -0.99567548        0.000496
       140         -0.99567548        0.000496
       141         -0.99567548        0.000496
       142         -0.99567549        0.000496
       143         -0.99567549        0.000496
       144         -0.99567549        0.000496
       145         -0.99567550        0.000496
       146         -0.99567550        0.000496
       147         -0.99567550        0.000496
       148         -0.99567550        0.000496
       149         -0.99567551        0.000496
       150         -0.99567551        0.000496
       151         -0.99567551        0.000496
       152         -0.99567552        0.000496
       153         -0.99567552        0.000394
       154         -0.99567552        0.000394
       155         -0.99567552        0.000394
       156         -0.99567552        0.000394
       157         -0.99567552        0.000313
       158         -0.99567553        0.000313
       159         -0.99567553        0.000313
       160         -0.99567553        0.000313
       161         -0.99567553        0.000313
       162         -0.99567553        0.000313
       163         -0.99567553        0.000313
       164         -0.99567553        0.000313
       165         -0.99567554        0.000313
       166         -0.99567554        0.000248
       167         -0.99567554        0.000248
       168         -0.99567554        0.000248
       169         -0.99567554        0.000248
       170         -0.99567554        0.000248
       171         -0.99567554        0.000248
       172         -0.99567554        0.000248
       173         -0.99567555        0.000248
       174         -0.99567555        0.000248
       175         -0.99567555        0.000248
       176         -0.99567555        0.000197
       177         -0.99567555        0.000156
       178         -0.99567555        0.000156
       179         -0.99567555        0.000156
       180         -0.99567555        0.000156
       181         -0.99567555        0.000156
       182         -0.99567555        0.000156
       183         -0.99567555        0.000124
       184         -0.99567555        0.000124
       185         -0.99567555        0.000124
       186         -0.99567555        0.000124
       187         -0.99567555        0.000124
       188         -0.99567555        0.000124
       189         -0.99567555        0.000124
       190         -0.99567555        0.000098
       191         -0.99567555        0.000098
       192         -0.99567555        0.000098
       193         -0.99567555        0.000098
       194         -0.99567555        0.000098
       195         -0.99567555        0.000098
       196         -0.99567555        0.000098
       197         -0.99567555        0.000098
       198         -0.99567555        0.000098
       199         -0.99567555        0.000098
       200         -0.99567555        0.000078
       201         -0.99567555        0.000062
       202         -0.99567555        0.000062
       203         -0.99567555        0.000062
       204         -0.99567555        0.000062
       205         -0.99567555        0.000062
       206         -0.99567555        0.000062
       207         -0.99567555        0.000062
       208         -0.99567555        0.000062
       209         -0.99567555        0.000062
       210         -0.99567555        0.000062
       211         -0.99567555        0.000062
       212         -0.99567555        0.000062
       213         -0.99567555        0.000062
       214         -0.99567555        0.000062
       215         -0.99567555        0.000062
       216         -0.99567555        0.000062
       217         -0.99567555        0.000062
       218         -0.99567555        0.000062
       219         -0.99567555        0.000062
       220         -0.99567555        0.000062
       221         -0.99567555        0.000049
       222         -0.99567555        0.000049
       223         -0.99567555        0.000049
       224         -0.99567555        0.000039
       225         -0.99567555        0.000031
       226         -0.99567555        0.000031
       227         -0.99567555        0.000031
       228         -0.99567555        0.000031
       229         -0.99567555        0.000025
       230         -0.99567555        0.000025
       231         -0.99567555        0.000025
       232         -0.99567555        0.000025
       233         -0.99567555        0.000025
       234         -0.99567555        0.000025
       235         -0.99567555        0.000025
       236         -0.99567555        0.000025
       237         -0.99567555        0.000025
       238         -0.99567555        0.000025
       239         -0.99567555        0.000025
       240         -0.99567555        0.000025
       241         -0.99567555        0.000025
       242         -0.99567555        0.000025
       243         -0.99567555        0.000025
       244         -0.99567555        0.000025
       245         -0.99567555        0.000025
       246         -0.99567555        0.000025
       247         -0.99567555        0.000025
       248         -0.99567555        0.000025
       249         -0.99567555        0.000025
       250         -0.99567555        0.000025
       251         -0.99567555        0.000020
       252         -0.99567555        0.000020
       253         -0.99567555        0.000020
       254         -0.99567555        0.000016
       255         -0.99567555        0.000016
       256         -0.99567555        0.000016
       257         -0.99567555        0.000016
       258         -0.99567555        0.000016
       259         -0.99567555        0.000012
       260         -0.99567555        0.000012
       261         -0.99567555        0.000012
       262         -0.99567555        0.000012
       263         -0.99567555        0.000012
       264         -0.99567555        0.000012
       265         -0.99567555        0.000012
       266         -0.99567555        0.000012
       267         -0.99567555        0.000012
       268         -0.99567555        0.000012
       269         -0.99567555        0.000012
       270         -0.99567555        0.000012
       271         -0.99567555        0.000012
       272         -0.99567555        0.000012
       273         -0.99567555        0.000010
       274         -0.99567555        0.000010
       275         -0.99567555        0.000010
       276         -0.99567555        0.000010
       277         -0.99567555        0.000008
       278         -0.99567555        0.000008
       279         -0.99567555        0.000008
       280         -0.99567555        0.000008
       281         -0.99567555        0.000006
       282         -0.99567555        0.000006
       283         -0.99567555        0.000005
       284         -0.99567555        0.000005
       285         -0.99567555        0.000005
       286         -0.99567555        0.000004
       287         -0.99567555        0.000002
       288         -0.99567555        0.000002
       289         -0.99567555        0.000002
       290         -0.99567555        0.000002
       291         -0.99567555        0.000002
       292         -0.99567555        0.000002
       293         -0.99567555        0.000002
       294         -0.99567555        0.000002
       295         -0.99567555        0.000002
       296         -0.99567555        0.000002
       297         -0.99567555        0.000002
       298         -0.99567555        0.000002
       299         -0.99567555        0.000002
       300         -0.99567555        0.000002
       301         -0.99567555        0.000002
       302         -0.99567555        0.000002
       303         -0.99567555        0.000002
       304         -0.99567555        0.000002
       305         -0.99567555        0.000002
       306         -0.99567555        0.000002
       307         -0.99567555        0.000002
       308         -0.99567555        0.000002
       309         -0.99567555        0.000002
       310         -0.99567555        0.000002
       311         -0.99567555        0.000002
       312         -0.99567555        0.000002
       313         -0.99567555        0.000002
       314         -0.99567555        0.000002
       315         -0.99567555        0.000002
       316         -0.99567555        0.000002
       317         -0.99567555        0.000002
       318         -0.99567555        0.000002
       319         -0.99567555        0.000002
       320         -0.99567555        0.000002
       321         -0.99567555        0.000002
       322         -0.99567555        0.000002
       323         -0.99567555        0.000002
       324         -0.99567555        0.000001
       325         -0.99567555        0.000001
       326         -0.99567555        0.000001
       327         -0.99567555        0.000001

 Reached Convergence

 WFN1                     :
 --------------------------
 Total WFN1 energy  =          -0.9956755515
 1-Electron energy  =          -1.5197649084
 2-Electron energy  =           0.4316167123
 Correlation energy =          -0.1786261622
 DFT XC energy      =           0.0000000000
 Entropy energy     =           0.0000000000
 Nuclear energy     =           0.2710988068

 conventional Hartree-Fock:
 --------------------------
 Total SCF energy  =          -0.8946115031
 2-Electron energy =           0.5326807608

                WFN1 Final Natural orbital energies and occupations
                ---------------------------------------------------

              Alpha       Beta            Alpha       Beta  
            --------    --------        --------    --------
       1      0.0000      0.0000          0.7624      0.7624
       2      0.0000      0.0000          0.2113      0.2113
       3      0.0000      0.0000          0.0148      0.0148
       4      0.0000      0.0000          0.0115      0.0115

             WFN1 Final Correlation function energies and occupations
             --------------------------------------------------------

              Alpha       Beta            Alpha       Beta  
            --------    --------        --------    --------
       1      0.0000      0.0000          1.0000      1.0000
       2      0.0000      0.0000          0.0000      0.0000
       3      0.0000      0.0000          0.0000      0.0000
       4      0.0000      0.0000          0.0000      0.0000

                WFN1 Final alpha-alpha 2-matrix occupation numbers
                --------------------------------------------------


 global array: g_momo1[1:4,1:4],  handle: -990 

            1           2           3           4  
       ----------- ----------- ----------- -----------
   1       0.00000     0.00000     0.00000     0.00000
   2       0.00000     0.00000     0.00000     0.00000
   3      -0.00000     0.00000     0.00000     0.00000
   4       0.00000     0.00000     0.00000    -0.00000

                 WFN1 Final beta-beta 2-matrix occupation numbers
                 ------------------------------------------------


 global array: g_momo2[1:4,1:4],  handle: -989 

            1           2           3           4  
       ----------- ----------- ----------- -----------
   1       0.00000     0.00000     0.00000     0.00000
   2       0.00000     0.00000     0.00000     0.00000
   3      -0.00000     0.00000     0.00000     0.00000
   4       0.00000     0.00000     0.00000    -0.00000

                  WFN1 Final alpha Correlation Function Analysis
                  ----------------------------------------------


 global array: Ca[1:4,1:4],  handle: -977 

                     1                       2                       3                       4  
       ----------------------- ----------------------- ----------------------- -----------------------
   1       0.85759,    0.16413    -0.46081,   -0.04953     0.00897,   -0.02139    -0.04834,   -0.14116
   2      -0.19609,   -0.41572    -0.42759,   -0.77441     0.00046,    0.01376    -0.07559,    0.01672
   3      -0.04039,    0.11494     0.02192,   -0.00141    -0.75369,   -0.01179    -0.64531,   -0.00790
   4       0.02053,   -0.10518    -0.04643,    0.00443    -0.64240,    0.13567     0.72814,   -0.15830

                   WFN1 Final beta Correlation Function Analysis
                   ---------------------------------------------


 global array: Cb[1:4,1:4],  handle: -976 

                     1                       2                       3                       4  
       ----------------------- ----------------------- ----------------------- -----------------------
   1       0.85759,    0.16413    -0.46081,   -0.04953     0.00897,   -0.02139    -0.04834,   -0.14116
   2      -0.19609,   -0.41572    -0.42759,   -0.77441     0.00046,    0.01376    -0.07559,    0.01672
   3      -0.04039,    0.11494     0.02192,   -0.00141    -0.75369,   -0.01179    -0.64531,   -0.00790
   4       0.02053,   -0.10518    -0.04643,    0.00443    -0.64240,    0.13567     0.72814,   -0.15830

                     WFN1 Final Alpha Natural Orbital Analysis
                     -----------------------------------------

 Vector    1  Occ=7.624034D-01  E= 0.000000D+00
              MO Center=  0.0D+00,  0.0D+00, -4.2D-07, r^2= 1.7D+00
   Bfn.  Coefficient  Atom+Function         Bfn.  Coefficient  Atom+Function  
  ----- ------------  ---------------      ----- ------------  ---------------
     2     -0.460162  1 H  s                  4     -0.460162  2 H  s          
     1     -0.231256  1 H  s                  3     -0.231256  2 H  s          

 Vector    2  Occ=2.112710D-01  E= 0.000000D+00
              MO Center=  0.0D+00,  0.0D+00,  4.4D-07, r^2= 2.0D+00
   Bfn.  Coefficient  Atom+Function         Bfn.  Coefficient  Atom+Function  
  ----- ------------  ---------------      ----- ------------  ---------------
     2     -0.554115  1 H  s                  4      0.554115  2 H  s          
     1     -0.319740  1 H  s                  3      0.319740  2 H  s          

 Vector    3  Occ=1.484210D-02  E= 0.000000D+00
              MO Center=  0.0D+00,  0.0D+00,  1.8D-06, r^2= 1.9D+00
   Bfn.  Coefficient  Atom+Function         Bfn.  Coefficient  Atom+Function  
  ----- ------------  ---------------      ----- ------------  ---------------
     1     -0.911342  1 H  s                  3     -0.911344  2 H  s          
     2      0.675882  1 H  s                  4      0.675884  2 H  s          

 Vector    4  Occ=1.148352D-02  E= 0.000000D+00
              MO Center=  0.0D+00,  0.0D+00, -1.8D-06, r^2= 2.7D+00
   Bfn.  Coefficient  Atom+Function         Bfn.  Coefficient  Atom+Function  
  ----- ------------  ---------------      ----- ------------  ---------------
     2      1.033698  1 H  s                  4     -1.033697  2 H  s          
     1     -0.906773  1 H  s                  3      0.906771  2 H  s          


                     WFN1 Final Beta Natural Orbital Analysis
                     ----------------------------------------

 Vector    1  Occ=7.624034D-01  E= 0.000000D+00
              MO Center=  0.0D+00,  0.0D+00, -4.2D-07, r^2= 1.7D+00
   Bfn.  Coefficient  Atom+Function         Bfn.  Coefficient  Atom+Function  
  ----- ------------  ---------------      ----- ------------  ---------------
     2     -0.460162  1 H  s                  4     -0.460162  2 H  s          
     1     -0.231256  1 H  s                  3     -0.231256  2 H  s          

 Vector    2  Occ=2.112710D-01  E= 0.000000D+00
              MO Center=  0.0D+00,  0.0D+00,  4.4D-07, r^2= 2.0D+00
   Bfn.  Coefficient  Atom+Function         Bfn.  Coefficient  Atom+Function  
  ----- ------------  ---------------      ----- ------------  ---------------
     2     -0.554115  1 H  s                  4      0.554115  2 H  s          
     1     -0.319740  1 H  s                  3      0.319740  2 H  s          

 Vector    3  Occ=1.484210D-02  E= 0.000000D+00
              MO Center=  0.0D+00,  0.0D+00,  1.8D-06, r^2= 1.9D+00
   Bfn.  Coefficient  Atom+Function         Bfn.  Coefficient  Atom+Function  
  ----- ------------  ---------------      ----- ------------  ---------------
     1     -0.911342  1 H  s                  3     -0.911344  2 H  s          
     2      0.675882  1 H  s                  4      0.675884  2 H  s          

 Vector    4  Occ=1.148352D-02  E= 0.000000D+00
              MO Center=  0.0D+00,  0.0D+00, -1.8D-06, r^2= 2.7D+00
   Bfn.  Coefficient  Atom+Function         Bfn.  Coefficient  Atom+Function  
  ----- ------------  ---------------      ----- ------------  ---------------
     2      1.033698  1 H  s                  4     -1.033697  2 H  s          
     1     -0.906773  1 H  s                  3      0.906771  2 H  s          


 Task  times  cpu:       15.7s     wall:       21.2s
 Summary of allocated global arrays
-----------------------------------
  No active global arrays



                         GA Statistics for process    0
                         ------------------------------

       create   destroy   get      put      acc     scatter   gather  read&inc
calls:   44       44     9.33e+06 1.95e+04 2.56e+04    0        0       11     
number of processes/call 1.00e+00 1.00e+00 1.00e+00 0.00e+00 0.00e+00
bytes total:             1.20e+09 3.27e+06 4.08e+06 0.00e+00 0.00e+00 8.80e+01
bytes remote:            0.00e+00 0.00e+00 0.00e+00 0.00e+00 0.00e+00 0.00e+00
Max memory consumed for GA by this process: 10624 bytes
MA_summarize_allocated_blocks: starting scan ...
MA_summarize_allocated_blocks: scan completed: 0 heap blocks, 0 stack blocks
MA usage statistics:

	allocation statistics:
					      heap	     stack
					      ----	     -----
	current number of blocks	         0	         0
	maximum number of blocks	        19	        17
	current total bytes		         0	         0
	maximum total bytes		   3204328	  22508616
	maximum total K-bytes		      3205	     22509
	maximum total M-bytes		         4	        23


                                NWChem Input Module
                                -------------------





                                     CITATION
                                     --------
                Please cite the following reference when publishing
                           results obtained with NWChem:

                 M. Valiev, E.J. Bylaska, N. Govind, K. Kowalski,
              T.P. Straatsma, H.J.J. van Dam, D. Wang, J. Nieplocha,
                        E. Apra, T.L. Windus, W.A. de Jong
                 "NWChem: a comprehensive and scalable open-source
                  solution for large scale molecular simulations"
                      Comput. Phys. Commun. 181, 1477 (2010)
                           doi:10.1016/j.cpc.2010.04.018

                                      AUTHORS
                                      -------
          E. Apra, E. J. Bylaska, W. A. de Jong, N. Govind, K. Kowalski,
       T. P. Straatsma, M. Valiev, H. J. J. van Dam, D. Wang, T. L. Windus,
        J. Hammond, J. Autschbach, K. Bhaskaran-Nair, J. Brabec, K. Lopata,
    S. A. Fischer, S. Krishnamoorthy, M. Jacquelin, W. Ma, M. Klemm, O. Villa,
      Y. Chen, V. Anisimov, F. Aquino, S. Hirata, M. T. Hackler, V. Konjkov,
      T. Risthaus, M. Malagoli, A. Marenich, A. Otero-de-la-Roza, J. Mullin,
        P. Nichols, R. Peverati, J. Pittner, Y. Zhao, P.-D. Fan, A. Fonari,
       M. Williamson, R. J. Harrison, J. R. Rehr, M. Dupuis, D. Silverstein,
    D. M. A. Smith, J. Nieplocha, V. Tipparaju, M. Krishnan, B. E. Van Kuiken,
        A. Vazquez-Mayagoitia, L. Jensen, M. Swart, Q. Wu, T. Van Voorhis,
     A. A. Auer, M. Nooijen, L. D. Crosby, E. Brown, G. Cisneros, G. I. Fann,
   H. Fruchtl, J. Garza, K. Hirao, R. A. Kendall, J. A. Nichols, K. Tsemekhman,
    K. Wolinski, J. Anchell, D. E. Bernholdt, P. Borowski, T. Clark, D. Clerc,
   H. Dachsel, M. J. O. Deegan, K. Dyall, D. Elwood, E. Glendening, M. Gutowski,
   A. C. Hess, J. Jaffe, B. G. Johnson, J. Ju, R. Kobayashi, R. Kutteh, Z. Lin,
   R. Littlefield, X. Long, B. Meng, T. Nakajima, S. Niu, L. Pollack, M. Rosing,
   K. Glaesemann, G. Sandrone, M. Stave, H. Taylor, G. Thomas, J. H. van Lenthe,
                               A. T. Wong, Z. Zhang.

 Total times  cpu:       15.7s     wall:       21.2s
