 argument  1 = input-wf.nw



============================== echo of input deck ==============================
echo
start wfn1_dat
geometry units au noautoz
  H 0 0 -2.14434600000000000000
  H 0 0  2.14434600000000000000
  symmetry cs
end
basis
  H library 6-31g
end
set wfn1:input_vectors "atomic"
set wfn1:solver "monte-carlo"
set wfn1:print_error F
set wfn1:t_initial 0.1
#set wfn1:corr_expr "wfn1_mx"
set wfn1:corr_expr "wfn1c"
set wfn1:t_bath 0.0
set wfn1:maxit  20000
task wfn1 energy
================================================================================


                                         
                                         


              Northwest Computational Chemistry Package (NWChem) 6.8
              ------------------------------------------------------


                    Environmental Molecular Sciences Laboratory
                       Pacific Northwest National Laboratory
                                Richland, WA 99352

                              Copyright (c) 1994-2015
                       Pacific Northwest National Laboratory
                            Battelle Memorial Institute

             NWChem is an open-source computational chemistry package
                        distributed under the terms of the
                      Educational Community License (ECL) 2.0
             A copy of the license is included with this distribution
                              in the LICENSE.TXT file

                                  ACKNOWLEDGMENT
                                  --------------

            This software and its documentation were developed at the
            EMSL at Pacific Northwest National Laboratory, a multiprogram
            national laboratory, operated for the U.S. Department of Energy
            by Battelle under Contract Number DE-AC05-76RL01830. Support
            for this work was provided by the Department of Energy Office
            of Biological and Environmental Research, Office of Basic
            Energy Sciences, and the Office of Advanced Scientific Computing.


           Job information
           ---------------

    hostname        = erato
    program         = ../../../bin/LINUX64/nwchem
    date            = Mon Mar  1 01:39:28 2021

    compiled        = Sun_Feb_28_18:02:42_2021
    source          = /home/hvandam/nwchem-1-wfn1
    nwchem branch   = Development
    nwchem revision = nwchem_on_git-124-gad72d19fff205e319ffbbf2bca37a04ded6ad57b
    ga revision     = nwchem_on_git-124-gad72d19
    use scalapack   = F
    input           = input-wf.nw
    prefix          = wfn1_dat.
    data base       = ./wfn1_dat.db
    status          = startup
    nproc           =        1
    time left       =     -1s



           Memory information
           ------------------

    heap     =   13107198 doubles =    100.0 Mbytes
    stack    =   13107195 doubles =    100.0 Mbytes
    global   =   26214400 doubles =    200.0 Mbytes (distinct from heap & stack)
    total    =   52428793 doubles =    400.0 Mbytes
    verify   = yes
    hardfail = no 


           Directory information
           ---------------------

  0 permanent = .
  0 scratch   = .




                                NWChem Input Module
                                -------------------


 Turning off AUTOSYM since
 SYMMETRY directive was detected!



                             Geometry "geometry" -> ""
                             -------------------------

 Output coordinates in a.u. (scale by  1.000000000 to convert to a.u.)

  No.       Tag          Charge          X              Y              Z
 ---- ---------------- ---------- -------------- -------------- --------------
    1 H                    1.0000     0.00000000     0.00000000    -2.14434600
    2 H                    1.0000     0.00000000     0.00000000     2.14434600

      Atomic Mass 
      ----------- 

      H                  1.007825


 Effective nuclear repulsion energy (a.u.)       0.2331713259

            Nuclear Dipole moment (a.u.) 
            ----------------------------
        X                 Y               Z
 ---------------- ---------------- ----------------
     0.0000000000     0.0000000000     0.0000000000

      Symmetry information
      --------------------

 Group name             Cs        
 Group number              2
 Group order               2
 No. of unique centers     1

      Symmetry unique atoms

     1


            XYZ format geometry
            -------------------
     2
 geometry
 H                     0.00000000     0.00000000    -1.13473912
 H                     0.00000000     0.00000000     1.13473912

                      Basis "ao basis" -> "" (cartesian)
                      -----
  H (Hydrogen)
  ------------
            Exponent  Coefficients 
       -------------- ---------------------------------------------------------
  1 S  1.87311370E+01  0.033495
  1 S  2.82539370E+00  0.234727
  1 S  6.40121700E-01  0.813757

  2 S  1.61277800E-01  1.000000



 Summary of "ao basis" -> "" (cartesian)
 ------------------------------------------------------------------------------
       Tag                 Description            Shells   Functions and Types
 ---------------- ------------------------------  ------  ---------------------
 H                           6-31g                   2        2   2s



                                NWChem WFN1 Module
                                ------------------



          No. of electrons :     2
           Alpha electrons :     1
            Beta electrons :     1
          Charge           :     0
          Spin multiplicity:     1

 HvD: wfn1_inpdft
 HvD: nquad_task =                     1
 HvD: iangquad   =                     0
 HvD: gridtype   = user      
 HvD: leb        =  T
 HvD: radgrid    = murakn    
 HvD: trunc_neigh=  T
 HvD: lssw       =  T
 HvD: whichssw   = erf1    
 HvD: mxnrad     =                     0
 HvD: mxnang     =                     0
 HVD: wfn1: movecs_in  = atomic                                                                                                                                                                                                                                                          
 HVD: wfn1: movecs_out = ./wfn1_dat.movecs                                                                                                                                                                                                                                               

      Superposition of Atomic Density Guess
      -------------------------------------

 Sum of atomic energies:          -0.99646508

      Non-variational initial energy
      ------------------------------

 Total energy =      -0.687237
 1-e energy   =      -1.462690
 2-e energy   =       0.542282
 HOMO         =      -0.244069
 LUMO         =      -0.133099

 iteration              energy           error
 ---------              ------           -----
         0         -0.91948324        0.080000
         1         -0.92380715        0.080000
         2         -0.92615257        0.080000
         3         -0.92786319        0.080000
         4         -0.92974014        0.080000
         5         -0.93443804        0.080000
         6         -0.93597320        0.080000
         7         -0.93658299        0.080000
         8         -0.93896494        0.080000
         9         -0.94054177        0.080000
        10         -0.94378581        0.080000
        11         -0.94622698        0.080000
        12         -0.94646010        0.080000
        13         -0.94786210        0.080000
        14         -0.95319489        0.080000
        15         -0.95322939        0.080000
        16         -0.95324575        0.080000
        17         -0.95454993        0.080000
        18         -0.95898812        0.080000
        19         -0.95960430        0.080000
        20         -0.96329625        0.080000
        21         -0.96359535        0.080000
        22         -0.96531589        0.080000
        23         -0.96535473        0.080000
        24         -0.96733748        0.080000
        25         -0.96828664        0.080000
        26         -0.96993644        0.080000
        27         -0.97033464        0.080000
        28         -0.97187138        0.080000
        29         -0.97223652        0.080000
        30         -0.97238080        0.080000
        31         -0.97316642        0.080000
        32         -0.97348912        0.080000
        33         -0.97362592        0.080000
        34         -0.97499483        0.080000
        35         -0.97547010        0.080000
        36         -0.97567379        0.080000
        37         -0.97576596        0.080000
        38         -0.97590501        0.080000
        39         -0.97590723        0.080000
        40         -0.97619729        0.080000
        41         -0.97657674        0.080000
        42         -0.97676632        0.080000
        43         -0.97718609        0.080000
        44         -0.97753017        0.080000
        45         -0.97784604        0.080000
        46         -0.97795811        0.080000
        47         -0.97807853        0.080000
        48         -0.97818386        0.080000
        49         -0.97827645        0.080000
        50         -0.97842483        0.080000
        51         -0.97871875        0.080000
        52         -0.97879900        0.080000
        53         -0.97896667        0.080000
        54         -0.97899603        0.080000
        55         -0.97902096        0.080000
        56         -0.97905175        0.080000
        57         -0.97905855        0.080000
        58         -0.97906791        0.080000
        59         -0.97909146        0.063496
        60         -0.97909997        0.050397
        61         -0.97911382        0.040000
        62         -0.97911850        0.040000
        63         -0.97911905        0.040000
        64         -0.97913831        0.040000
        65         -0.97915290        0.040000
        66         -0.97915414        0.031748
        67         -0.97916437        0.025198
        68         -0.97917129        0.020000
        69         -0.97917440        0.020000
        70         -0.97917783        0.020000
        71         -0.97918472        0.020000
        72         -0.97918557        0.015874
        73         -0.97918634        0.015874
        74         -0.97919084        0.012599
        75         -0.97919177        0.012599
        76         -0.97919204        0.012599
        77         -0.97919395        0.012599
        78         -0.97919442        0.012599
        79         -0.97919442        0.010000
        80         -0.97919463        0.010000
        81         -0.97919575        0.010000
        82         -0.97919686        0.010000
        83         -0.97919759        0.007937
        84         -0.97919788        0.007937
        85         -0.97919819        0.007937
        86         -0.97919841        0.005000
        87         -0.97919859        0.005000
        88         -0.97919876        0.005000
        89         -0.97919877        0.003969
        90         -0.97919897        0.003969
        91         -0.97919899        0.003969
        92         -0.97919901        0.003150
        93         -0.97919901        0.003150
        94         -0.97919916        0.003150
        95         -0.97919917        0.003150
        96         -0.97919919        0.001984
        97         -0.97919921        0.001984
        98         -0.97919924        0.001984
        99         -0.97919933        0.001984
       100         -0.97919939        0.001984
       101         -0.97919945        0.001984
       102         -0.97919946        0.001984
       103         -0.97919947        0.001575
       104         -0.97919947        0.001575
       105         -0.97919950        0.001575
       106         -0.97919952        0.001575
       107         -0.97919954        0.001575
       108         -0.97919957        0.001575
       109         -0.97919961        0.001575
       110         -0.97919961        0.001575
       111         -0.97919962        0.001575
       112         -0.97919963        0.001575
       113         -0.97919963        0.001575
       114         -0.97919964        0.001575
       115         -0.97919968        0.001250
       116         -0.97919970        0.001250
       117         -0.97919972        0.001250
       118         -0.97919972        0.000992
       119         -0.97919973        0.000992
       120         -0.97919974        0.000992
       121         -0.97919974        0.000992
       122         -0.97919974        0.000625
       123         -0.97919975        0.000496
       124         -0.97919975        0.000394
       125         -0.97919975        0.000394
       126         -0.97919975        0.000394
       127         -0.97919975        0.000394
       128         -0.97919975        0.000394
       129         -0.97919975        0.000394
       130         -0.97919975        0.000394
       131         -0.97919975        0.000394
       132         -0.97919975        0.000394
       133         -0.97919975        0.000394
       134         -0.97919976        0.000394
       135         -0.97919976        0.000394
       136         -0.97919976        0.000313
       137         -0.97919976        0.000313
       138         -0.97919976        0.000313
       139         -0.97919976        0.000313
       140         -0.97919976        0.000248
       141         -0.97919976        0.000248
       142         -0.97919976        0.000248
       143         -0.97919976        0.000248
       144         -0.97919976        0.000248
       145         -0.97919976        0.000248
       146         -0.97919976        0.000197
       147         -0.97919976        0.000156
       148         -0.97919976        0.000156
       149         -0.97919976        0.000156
       150         -0.97919976        0.000124
       151         -0.97919977        0.000124
       152         -0.97919977        0.000098
       153         -0.97919977        0.000098
       154         -0.97919977        0.000098
       155         -0.97919977        0.000098
       156         -0.97919977        0.000098
       157         -0.97919977        0.000098
       158         -0.97919977        0.000098
       159         -0.97919977        0.000098
       160         -0.97919977        0.000078
       161         -0.97919977        0.000078
       162         -0.97919977        0.000078
       163         -0.97919977        0.000078
       164         -0.97919977        0.000078
       165         -0.97919977        0.000078
       166         -0.97919977        0.000078
       167         -0.97919977        0.000078
       168         -0.97919977        0.000078
       169         -0.97919977        0.000078
       170         -0.97919977        0.000062
       171         -0.97919977        0.000049
       172         -0.97919977        0.000049
       173         -0.97919977        0.000049
       174         -0.97919977        0.000031
       175         -0.97919977        0.000031
       176         -0.97919977        0.000031
       177         -0.97919977        0.000020
       178         -0.97919977        0.000012
       179         -0.97919977        0.000012
       180         -0.97919977        0.000012
       181         -0.97919977        0.000012
       182         -0.97919977        0.000010
       183         -0.97919977        0.000008
       184         -0.97919977        0.000008
       185         -0.97919977        0.000008
       186         -0.97919977        0.000006
       187         -0.97919977        0.000006
       188         -0.97919977        0.000006
       189         -0.97919977        0.000006
       190         -0.97919977        0.000006
       191         -0.97919977        0.000004
       192         -0.97919977        0.000002
       193         -0.97919977        0.000002
       194         -0.97919977        0.000002
       195         -0.97919977        0.000002
       196         -0.97919977        0.000002
       197         -0.97919977        0.000002
       198         -0.97919977        0.000002
       199         -0.97919977        0.000002
       200         -0.97919977        0.000002
       201         -0.97919977        0.000002
       202         -0.97919977        0.000002
       203         -0.97919977        0.000002
       204         -0.97919977        0.000001
       205         -0.97919977        0.000001
       206         -0.97919977        0.000001
       207         -0.97919977        0.000001

 Reached Convergence

 WFN1                     :
 --------------------------
 Total WFN1 energy  =          -0.9791997660
 1-Electron energy  =          -1.4168138448
 2-Electron energy  =           0.4115315222
 Correlation energy =          -0.2070887693
 DFT XC energy      =           0.0000000000
 Entropy energy     =           0.0000000000
 Nuclear energy     =           0.2331713259

 conventional Hartree-Fock:
 --------------------------
 Total SCF energy  =          -0.8694446339
 2-Electron energy =           0.5212866544

                WFN1 Final Natural orbital energies and occupations
                ---------------------------------------------------

              Alpha       Beta            Alpha       Beta  
            --------    --------        --------    --------
       1      0.0000      0.0000          0.6813      0.6813
       2      0.0000      0.0000          0.2881      0.2881
       3      0.0000      0.0000          0.0175      0.0175
       4      0.0000      0.0000          0.0130      0.0130

             WFN1 Final Correlation function energies and occupations
             --------------------------------------------------------

              Alpha       Beta            Alpha       Beta  
            --------    --------        --------    --------
       1      0.0000      0.0000          1.0000      1.0000
       2      0.0000      0.0000          0.0000      0.0000
       3      0.0000      0.0000          0.0000      0.0000
       4      0.0000      0.0000          0.0000      0.0000

                WFN1 Final alpha-alpha 2-matrix occupation numbers
                --------------------------------------------------


 global array: g_momo1[1:4,1:4],  handle: -990 

            1           2           3           4  
       ----------- ----------- ----------- -----------
   1       0.00000     0.00000     0.00000     0.00000
   2       0.00000     0.00000     0.00000    -0.00000
   3       0.00000     0.00000     0.00000     0.00000
   4       0.00000     0.00000     0.00000     0.00000

                 WFN1 Final beta-beta 2-matrix occupation numbers
                 ------------------------------------------------


 global array: g_momo2[1:4,1:4],  handle: -989 

            1           2           3           4  
       ----------- ----------- ----------- -----------
   1       0.00000     0.00000     0.00000     0.00000
   2       0.00000     0.00000     0.00000    -0.00000
   3       0.00000     0.00000     0.00000     0.00000
   4       0.00000     0.00000     0.00000     0.00000

                  WFN1 Final alpha Correlation Function Analysis
                  ----------------------------------------------


 global array: Ca[1:4,1:4],  handle: -977 

                     1                       2                       3                       4  
       ----------------------- ----------------------- ----------------------- -----------------------
   1       0.56661,   -0.60021    -0.34002,    0.41350     0.09582,   -0.00621     0.00771,   -0.15107
   2      -0.29971,    0.44530    -0.43911,    0.71166    -0.08277,   -0.06802    -0.03256,   -0.00846
   3      -0.01849,   -0.13117    -0.00894,    0.00223    -0.81661,    0.03068     0.56072,   -0.01260
   4       0.08684,    0.07409     0.01371,   -0.11773    -0.40368,   -0.38542    -0.55920,   -0.59052

                   WFN1 Final beta Correlation Function Analysis
                   ---------------------------------------------


 global array: Cb[1:4,1:4],  handle: -976 

                     1                       2                       3                       4  
       ----------------------- ----------------------- ----------------------- -----------------------
   1       0.56661,   -0.60021    -0.34002,    0.41350     0.09582,   -0.00621     0.00771,   -0.15107
   2      -0.29971,    0.44530    -0.43911,    0.71166    -0.08277,   -0.06802    -0.03256,   -0.00846
   3      -0.01849,   -0.13117    -0.00894,    0.00223    -0.81661,    0.03068     0.56072,   -0.01260
   4       0.08684,    0.07409     0.01371,   -0.11773    -0.40368,   -0.38542    -0.55920,   -0.59052

                     WFN1 Final Alpha Natural Orbital Analysis
                     -----------------------------------------

 Vector    1  Occ=6.813025D-01  E= 0.000000D+00
              MO Center=  0.0D+00,  0.0D+00,  2.6D-07, r^2= 2.1D+00
   Bfn.  Coefficient  Atom+Function         Bfn.  Coefficient  Atom+Function  
  ----- ------------  ---------------      ----- ------------  ---------------
     2     -0.483500  1 H  s                  4     -0.483500  2 H  s          
     1     -0.230542  1 H  s                  3     -0.230543  2 H  s          

 Vector    2  Occ=2.881197D-01  E= 0.000000D+00
              MO Center=  0.0D+00,  0.0D+00, -2.6D-07, r^2= 2.3D+00
   Bfn.  Coefficient  Atom+Function         Bfn.  Coefficient  Atom+Function  
  ----- ------------  ---------------      ----- ------------  ---------------
     2     -0.532897  1 H  s                  4      0.532897  2 H  s          
     1     -0.299227  1 H  s                  3      0.299227  2 H  s          

 Vector    3  Occ=1.754678D-02  E= 0.000000D+00
              MO Center=  0.0D+00,  0.0D+00, -1.2D-06, r^2= 2.2D+00
   Bfn.  Coefficient  Atom+Function         Bfn.  Coefficient  Atom+Function  
  ----- ------------  ---------------      ----- ------------  ---------------
     1     -0.897438  1 H  s                  3     -0.897437  2 H  s          
     2      0.683583  1 H  s                  4      0.683582  2 H  s          

 Vector    4  Occ=1.303102D-02  E= 0.000000D+00
              MO Center=  0.0D+00,  0.0D+00,  1.2D-06, r^2= 2.9D+00
   Bfn.  Coefficient  Atom+Function         Bfn.  Coefficient  Atom+Function  
  ----- ------------  ---------------      ----- ------------  ---------------
     2      0.962040  1 H  s                  4     -0.962041  2 H  s          
     1     -0.920461  1 H  s                  3      0.920462  2 H  s          


                     WFN1 Final Beta Natural Orbital Analysis
                     ----------------------------------------

 Vector    1  Occ=6.813025D-01  E= 0.000000D+00
              MO Center=  0.0D+00,  0.0D+00,  2.6D-07, r^2= 2.1D+00
   Bfn.  Coefficient  Atom+Function         Bfn.  Coefficient  Atom+Function  
  ----- ------------  ---------------      ----- ------------  ---------------
     2     -0.483500  1 H  s                  4     -0.483500  2 H  s          
     1     -0.230542  1 H  s                  3     -0.230543  2 H  s          

 Vector    2  Occ=2.881197D-01  E= 0.000000D+00
              MO Center=  0.0D+00,  0.0D+00, -2.6D-07, r^2= 2.3D+00
   Bfn.  Coefficient  Atom+Function         Bfn.  Coefficient  Atom+Function  
  ----- ------------  ---------------      ----- ------------  ---------------
     2     -0.532897  1 H  s                  4      0.532897  2 H  s          
     1     -0.299227  1 H  s                  3      0.299227  2 H  s          

 Vector    3  Occ=1.754678D-02  E= 0.000000D+00
              MO Center=  0.0D+00,  0.0D+00, -1.2D-06, r^2= 2.2D+00
   Bfn.  Coefficient  Atom+Function         Bfn.  Coefficient  Atom+Function  
  ----- ------------  ---------------      ----- ------------  ---------------
     1     -0.897438  1 H  s                  3     -0.897437  2 H  s          
     2      0.683583  1 H  s                  4      0.683582  2 H  s          

 Vector    4  Occ=1.303102D-02  E= 0.000000D+00
              MO Center=  0.0D+00,  0.0D+00,  1.2D-06, r^2= 2.9D+00
   Bfn.  Coefficient  Atom+Function         Bfn.  Coefficient  Atom+Function  
  ----- ------------  ---------------      ----- ------------  ---------------
     2      0.962040  1 H  s                  4     -0.962041  2 H  s          
     1     -0.920461  1 H  s                  3      0.920462  2 H  s          


 Task  times  cpu:       13.0s     wall:       19.4s
 Summary of allocated global arrays
-----------------------------------
  No active global arrays



                         GA Statistics for process    0
                         ------------------------------

       create   destroy   get      put      acc     scatter   gather  read&inc
calls:   44       44     7.23e+06 1.52e+04 1.98e+04    0        0       11     
number of processes/call 1.00e+00 1.00e+00 1.00e+00 0.00e+00 0.00e+00
bytes total:             9.29e+08 2.53e+06 3.16e+06 0.00e+00 0.00e+00 8.80e+01
bytes remote:            0.00e+00 0.00e+00 0.00e+00 0.00e+00 0.00e+00 0.00e+00
Max memory consumed for GA by this process: 10624 bytes
MA_summarize_allocated_blocks: starting scan ...
MA_summarize_allocated_blocks: scan completed: 0 heap blocks, 0 stack blocks
MA usage statistics:

	allocation statistics:
					      heap	     stack
					      ----	     -----
	current number of blocks	         0	         0
	maximum number of blocks	        19	        17
	current total bytes		         0	         0
	maximum total bytes		   3204344	  22508664
	maximum total K-bytes		      3205	     22509
	maximum total M-bytes		         4	        23


                                NWChem Input Module
                                -------------------





                                     CITATION
                                     --------
                Please cite the following reference when publishing
                           results obtained with NWChem:

                 M. Valiev, E.J. Bylaska, N. Govind, K. Kowalski,
              T.P. Straatsma, H.J.J. van Dam, D. Wang, J. Nieplocha,
                        E. Apra, T.L. Windus, W.A. de Jong
                 "NWChem: a comprehensive and scalable open-source
                  solution for large scale molecular simulations"
                      Comput. Phys. Commun. 181, 1477 (2010)
                           doi:10.1016/j.cpc.2010.04.018

                                      AUTHORS
                                      -------
          E. Apra, E. J. Bylaska, W. A. de Jong, N. Govind, K. Kowalski,
       T. P. Straatsma, M. Valiev, H. J. J. van Dam, D. Wang, T. L. Windus,
        J. Hammond, J. Autschbach, K. Bhaskaran-Nair, J. Brabec, K. Lopata,
    S. A. Fischer, S. Krishnamoorthy, M. Jacquelin, W. Ma, M. Klemm, O. Villa,
      Y. Chen, V. Anisimov, F. Aquino, S. Hirata, M. T. Hackler, V. Konjkov,
      T. Risthaus, M. Malagoli, A. Marenich, A. Otero-de-la-Roza, J. Mullin,
        P. Nichols, R. Peverati, J. Pittner, Y. Zhao, P.-D. Fan, A. Fonari,
       M. Williamson, R. J. Harrison, J. R. Rehr, M. Dupuis, D. Silverstein,
    D. M. A. Smith, J. Nieplocha, V. Tipparaju, M. Krishnan, B. E. Van Kuiken,
        A. Vazquez-Mayagoitia, L. Jensen, M. Swart, Q. Wu, T. Van Voorhis,
     A. A. Auer, M. Nooijen, L. D. Crosby, E. Brown, G. Cisneros, G. I. Fann,
   H. Fruchtl, J. Garza, K. Hirao, R. A. Kendall, J. A. Nichols, K. Tsemekhman,
    K. Wolinski, J. Anchell, D. E. Bernholdt, P. Borowski, T. Clark, D. Clerc,
   H. Dachsel, M. J. O. Deegan, K. Dyall, D. Elwood, E. Glendening, M. Gutowski,
   A. C. Hess, J. Jaffe, B. G. Johnson, J. Ju, R. Kobayashi, R. Kutteh, Z. Lin,
   R. Littlefield, X. Long, B. Meng, T. Nakajima, S. Niu, L. Pollack, M. Rosing,
   K. Glaesemann, G. Sandrone, M. Stave, H. Taylor, G. Thomas, J. H. van Lenthe,
                               A. T. Wong, Z. Zhang.

 Total times  cpu:       13.0s     wall:       19.5s
