 argument  1 = input-wf.nw



============================== echo of input deck ==============================
echo
start wfn1_dat
geometry units au noautoz
  H 0 0 -1.09434600000000000000
  H 0 0  1.09434600000000000000
  symmetry cs
end
basis
  H library 6-31g
end
set wfn1:input_vectors "atomic"
set wfn1:solver "monte-carlo"
set wfn1:print_error F
set wfn1:t_initial 0.1
#set wfn1:corr_expr "wfn1_mx"
set wfn1:corr_expr "wfn1c"
set wfn1:t_bath 0.0
set wfn1:maxit  20000
task wfn1 energy
================================================================================


                                         
                                         


              Northwest Computational Chemistry Package (NWChem) 6.8
              ------------------------------------------------------


                    Environmental Molecular Sciences Laboratory
                       Pacific Northwest National Laboratory
                                Richland, WA 99352

                              Copyright (c) 1994-2015
                       Pacific Northwest National Laboratory
                            Battelle Memorial Institute

             NWChem is an open-source computational chemistry package
                        distributed under the terms of the
                      Educational Community License (ECL) 2.0
             A copy of the license is included with this distribution
                              in the LICENSE.TXT file

                                  ACKNOWLEDGMENT
                                  --------------

            This software and its documentation were developed at the
            EMSL at Pacific Northwest National Laboratory, a multiprogram
            national laboratory, operated for the U.S. Department of Energy
            by Battelle under Contract Number DE-AC05-76RL01830. Support
            for this work was provided by the Department of Energy Office
            of Biological and Environmental Research, Office of Basic
            Energy Sciences, and the Office of Advanced Scientific Computing.


           Job information
           ---------------

    hostname        = erato
    program         = ../../../bin/LINUX64/nwchem
    date            = Mon Mar  1 01:23:10 2021

    compiled        = Sun_Feb_28_18:02:42_2021
    source          = /home/hvandam/nwchem-1-wfn1
    nwchem branch   = Development
    nwchem revision = nwchem_on_git-124-gad72d19fff205e319ffbbf2bca37a04ded6ad57b
    ga revision     = nwchem_on_git-124-gad72d19
    use scalapack   = F
    input           = input-wf.nw
    prefix          = wfn1_dat.
    data base       = ./wfn1_dat.db
    status          = startup
    nproc           =        1
    time left       =     -1s



           Memory information
           ------------------

    heap     =   13107198 doubles =    100.0 Mbytes
    stack    =   13107195 doubles =    100.0 Mbytes
    global   =   26214400 doubles =    200.0 Mbytes (distinct from heap & stack)
    total    =   52428793 doubles =    400.0 Mbytes
    verify   = yes
    hardfail = no 


           Directory information
           ---------------------

  0 permanent = .
  0 scratch   = .




                                NWChem Input Module
                                -------------------


 Turning off AUTOSYM since
 SYMMETRY directive was detected!



                             Geometry "geometry" -> ""
                             -------------------------

 Output coordinates in a.u. (scale by  1.000000000 to convert to a.u.)

  No.       Tag          Charge          X              Y              Z
 ---- ---------------- ---------- -------------- -------------- --------------
    1 H                    1.0000     0.00000000     0.00000000    -1.09434600
    2 H                    1.0000     0.00000000     0.00000000     1.09434600

      Atomic Mass 
      ----------- 

      H                  1.007825


 Effective nuclear repulsion energy (a.u.)       0.4568938891

            Nuclear Dipole moment (a.u.) 
            ----------------------------
        X                 Y               Z
 ---------------- ---------------- ----------------
     0.0000000000     0.0000000000     0.0000000000

      Symmetry information
      --------------------

 Group name             Cs        
 Group number              2
 Group order               2
 No. of unique centers     1

      Symmetry unique atoms

     1


            XYZ format geometry
            -------------------
     2
 geometry
 H                     0.00000000     0.00000000    -0.57910301
 H                     0.00000000     0.00000000     0.57910301

                      Basis "ao basis" -> "" (cartesian)
                      -----
  H (Hydrogen)
  ------------
            Exponent  Coefficients 
       -------------- ---------------------------------------------------------
  1 S  1.87311370E+01  0.033495
  1 S  2.82539370E+00  0.234727
  1 S  6.40121700E-01  0.813757

  2 S  1.61277800E-01  1.000000



 Summary of "ao basis" -> "" (cartesian)
 ------------------------------------------------------------------------------
       Tag                 Description            Shells   Functions and Types
 ---------------- ------------------------------  ------  ---------------------
 H                           6-31g                   2        2   2s



                                NWChem WFN1 Module
                                ------------------



          No. of electrons :     2
           Alpha electrons :     1
            Beta electrons :     1
          Charge           :     0
          Spin multiplicity:     1

 HvD: wfn1_inpdft
 HvD: nquad_task =                     1
 HvD: iangquad   =                     0
 HvD: gridtype   = user      
 HvD: leb        =  T
 HvD: radgrid    = murakn    
 HvD: trunc_neigh=  T
 HvD: lssw       =  T
 HvD: whichssw   = erf1    
 HvD: mxnrad     =                     0
 HvD: mxnang     =                     0
 HVD: wfn1: movecs_in  = atomic                                                                                                                                                                                                                                                          
 HVD: wfn1: movecs_out = ./wfn1_dat.movecs                                                                                                                                                                                                                                               

      Superposition of Atomic Density Guess
      -------------------------------------

 Sum of atomic energies:          -0.99646508

      Non-variational initial energy
      ------------------------------

 Total energy =      -0.775475
 1-e energy   =      -1.876635
 2-e energy   =       0.644266
 HOMO         =      -0.419254
 LUMO         =       0.055344

 iteration              energy           error
 ---------              ------           -----
         0         -1.06993165        0.080000
         1         -1.07080786        0.080000
         2         -1.07152080        0.080000
         3         -1.07383389        0.080000
         4         -1.07412882        0.080000
         5         -1.07437136        0.080000
         6         -1.07502722        0.080000
         7         -1.07600574        0.080000
         8         -1.07629881        0.080000
         9         -1.07660548        0.080000
        10         -1.07663026        0.080000
        11         -1.07700325        0.080000
        12         -1.07747178        0.080000
        13         -1.07795908        0.080000
        14         -1.07817746        0.080000
        15         -1.07820337        0.080000
        16         -1.07855472        0.080000
        17         -1.07894221        0.080000
        18         -1.07917001        0.080000
        19         -1.07924596        0.080000
        20         -1.07928917        0.080000
        21         -1.07933860        0.080000
        22         -1.07935970        0.080000
        23         -1.07944946        0.080000
        24         -1.07957517        0.080000
        25         -1.07966873        0.080000
        26         -1.07975721        0.080000
        27         -1.07981245        0.080000
        28         -1.07981783        0.080000
        29         -1.07990723        0.080000
        30         -1.07991257        0.063496
        31         -1.07995151        0.050397
        32         -1.07997395        0.050397
        33         -1.08000458        0.050397
        34         -1.08001481        0.050397
        35         -1.08001510        0.050397
        36         -1.08006648        0.050397
        37         -1.08007477        0.040000
        38         -1.08008597        0.040000
        39         -1.08012571        0.040000
        40         -1.08012593        0.031748
        41         -1.08013414        0.031748
        42         -1.08015072        0.025198
        43         -1.08015354        0.025198
        44         -1.08016402        0.025198
        45         -1.08017368        0.025198
        46         -1.08017442        0.025198
        47         -1.08018318        0.025198
        48         -1.08018849        0.020000
        49         -1.08019013        0.020000
        50         -1.08019103        0.020000
        51         -1.08020118        0.020000
        52         -1.08020276        0.020000
        53         -1.08020847        0.020000
        54         -1.08023013        0.020000
        55         -1.08024454        0.015874
        56         -1.08024655        0.015874
        57         -1.08024711        0.015874
        58         -1.08025094        0.015874
        59         -1.08026313        0.015874
        60         -1.08026630        0.015874
        61         -1.08028402        0.015874
        62         -1.08028721        0.015874
        63         -1.08029388        0.015874
        64         -1.08029616        0.015874
        65         -1.08030411        0.015874
        66         -1.08030650        0.015874
        67         -1.08030969        0.015874
        68         -1.08031799        0.015874
        69         -1.08033207        0.015874
        70         -1.08033514        0.015874
        71         -1.08033575        0.015874
        72         -1.08034730        0.015874
        73         -1.08035013        0.015874
        74         -1.08035854        0.015874
        75         -1.08036085        0.015874
        76         -1.08036273        0.015874
        77         -1.08037752        0.015874
        78         -1.08038378        0.012599
        79         -1.08039073        0.012599
        80         -1.08039391        0.012599
        81         -1.08039480        0.012599
        82         -1.08039791        0.012599
        83         -1.08040575        0.012599
        84         -1.08040601        0.012599
        85         -1.08041273        0.012599
        86         -1.08041901        0.012599
        87         -1.08041988        0.012599
        88         -1.08042069        0.012599
        89         -1.08042241        0.012599
        90         -1.08043043        0.012599
        91         -1.08043103        0.012599
        92         -1.08043444        0.012599
        93         -1.08043837        0.012599
        94         -1.08044046        0.012599
        95         -1.08046161        0.012599
        96         -1.08046431        0.012599
        97         -1.08047246        0.012599
        98         -1.08047557        0.012599
        99         -1.08047762        0.012599
       100         -1.08047845        0.012599
       101         -1.08048376        0.012599
       102         -1.08048416        0.012599
       103         -1.08048877        0.012599
       104         -1.08049026        0.012599
       105         -1.08050416        0.012599
       106         -1.08051526        0.012599
       107         -1.08051677        0.012599
       108         -1.08052545        0.012599
       109         -1.08052731        0.012599
       110         -1.08053501        0.012599
       111         -1.08053779        0.012599
       112         -1.08054336        0.012599
       113         -1.08054763        0.012599
       114         -1.08054855        0.012599
       115         -1.08054993        0.012599
       116         -1.08055533        0.012599
       117         -1.08055662        0.012599
       118         -1.08055684        0.012599
       119         -1.08056156        0.012599
       120         -1.08056374        0.012599
       121         -1.08056703        0.012599
       122         -1.08056705        0.012599
       123         -1.08056911        0.012599
       124         -1.08056993        0.012599
       125         -1.08057159        0.012599
       126         -1.08058454        0.012599
       127         -1.08058809        0.012599
       128         -1.08058974        0.012599
       129         -1.08059002        0.012599
       130         -1.08060050        0.012599
       131         -1.08060341        0.012599
       132         -1.08060482        0.012599
       133         -1.08060679        0.012599
       134         -1.08060825        0.012599
       135         -1.08060966        0.012599
       136         -1.08061382        0.012599
       137         -1.08061499        0.010000
       138         -1.08061684        0.010000
       139         -1.08061976        0.010000
       140         -1.08062764        0.010000
       141         -1.08063013        0.010000
       142         -1.08063805        0.010000
       143         -1.08064065        0.010000
       144         -1.08064545        0.010000
       145         -1.08064572        0.010000
       146         -1.08064945        0.010000
       147         -1.08065541        0.010000
       148         -1.08066161        0.010000
       149         -1.08066254        0.010000
       150         -1.08066358        0.010000
       151         -1.08066378        0.010000
       152         -1.08066803        0.010000
       153         -1.08067026        0.010000
       154         -1.08067267        0.010000
       155         -1.08067302        0.010000
       156         -1.08067595        0.010000
       157         -1.08067845        0.010000
       158         -1.08068101        0.010000
       159         -1.08068187        0.010000
       160         -1.08068986        0.010000
       161         -1.08069008        0.010000
       162         -1.08069047        0.010000
       163         -1.08069117        0.010000
       164         -1.08069767        0.010000
       165         -1.08070108        0.010000
       166         -1.08070145        0.010000
       167         -1.08070629        0.010000
       168         -1.08070957        0.010000
       169         -1.08071417        0.010000
       170         -1.08071590        0.010000
       171         -1.08071613        0.010000
       172         -1.08071768        0.010000
       173         -1.08071999        0.010000
       174         -1.08072135        0.010000
       175         -1.08072228        0.010000
       176         -1.08072620        0.010000
       177         -1.08072916        0.010000
       178         -1.08072973        0.010000
       179         -1.08073144        0.010000
       180         -1.08073390        0.010000
       181         -1.08073646        0.010000
       182         -1.08073786        0.010000
       183         -1.08074117        0.010000
       184         -1.08074425        0.010000
       185         -1.08074586        0.010000
       186         -1.08074884        0.010000
       187         -1.08075316        0.010000
       188         -1.08075366        0.010000
       189         -1.08075397        0.010000
       190         -1.08075441        0.010000
       191         -1.08075528        0.010000
       192         -1.08076175        0.010000
       193         -1.08076395        0.010000
       194         -1.08076551        0.010000
       195         -1.08076767        0.010000
       196         -1.08077023        0.010000
       197         -1.08077295        0.010000
       198         -1.08077447        0.010000
       199         -1.08077863        0.010000
       200         -1.08078029        0.010000
       201         -1.08078263        0.010000
       202         -1.08078745        0.010000
       203         -1.08078863        0.010000
       204         -1.08078882        0.010000
       205         -1.08079048        0.010000
       206         -1.08079534        0.010000
       207         -1.08079988        0.010000
       208         -1.08080024        0.010000
       209         -1.08080614        0.010000
       210         -1.08080631        0.010000
       211         -1.08080758        0.010000
       212         -1.08081061        0.010000
       213         -1.08081398        0.010000
       214         -1.08081546        0.010000
       215         -1.08081724        0.010000
       216         -1.08082400        0.010000
       217         -1.08082407        0.010000
       218         -1.08082455        0.010000
       219         -1.08082750        0.010000
       220         -1.08083121        0.010000
       221         -1.08083203        0.010000
       222         -1.08083418        0.010000
       223         -1.08083607        0.010000
       224         -1.08083630        0.010000
       225         -1.08083779        0.010000
       226         -1.08084239        0.010000
       227         -1.08084805        0.010000
       228         -1.08084843        0.010000
       229         -1.08085067        0.010000
       230         -1.08085370        0.010000
       231         -1.08085397        0.010000
       232         -1.08085884        0.010000
       233         -1.08086076        0.010000
       234         -1.08086168        0.010000
       235         -1.08086433        0.010000
       236         -1.08086991        0.010000
       237         -1.08087003        0.010000
       238         -1.08087006        0.010000
       239         -1.08087133        0.010000
       240         -1.08087327        0.010000
       241         -1.08087499        0.010000
       242         -1.08087687        0.010000
       243         -1.08087962        0.010000
       244         -1.08088486        0.010000
       245         -1.08088726        0.010000
       246         -1.08088879        0.010000
       247         -1.08089093        0.010000
       248         -1.08089264        0.010000
       249         -1.08089774        0.010000
       250         -1.08090315        0.010000
       251         -1.08090341        0.010000
       252         -1.08090404        0.010000
       253         -1.08090601        0.010000
       254         -1.08090827        0.010000
       255         -1.08090999        0.010000
       256         -1.08091071        0.010000
       257         -1.08091733        0.010000
       258         -1.08091960        0.010000
       259         -1.08092223        0.010000
       260         -1.08092460        0.010000
       261         -1.08092703        0.010000
       262         -1.08092818        0.010000
       263         -1.08093151        0.010000
       264         -1.08093227        0.010000
       265         -1.08093792        0.010000
       266         -1.08094050        0.010000
       267         -1.08094124        0.010000
       268         -1.08094197        0.010000
       269         -1.08094230        0.010000
       270         -1.08094300        0.010000
       271         -1.08094437        0.010000
       272         -1.08094478        0.010000
       273         -1.08094596        0.010000
       274         -1.08094882        0.010000
       275         -1.08094956        0.010000
       276         -1.08095198        0.010000
       277         -1.08095220        0.010000
       278         -1.08095488        0.010000
       279         -1.08095561        0.010000
       280         -1.08095689        0.010000
       281         -1.08095773        0.010000
       282         -1.08096134        0.010000
       283         -1.08096242        0.010000
       284         -1.08096455        0.010000
       285         -1.08096540        0.010000
       286         -1.08096753        0.010000
       287         -1.08096941        0.010000
       288         -1.08097247        0.010000
       289         -1.08097422        0.010000
       290         -1.08097499        0.010000
       291         -1.08097640        0.010000
       292         -1.08097654        0.010000
       293         -1.08097743        0.010000
       294         -1.08097764        0.010000
       295         -1.08098481        0.010000
       296         -1.08098738        0.010000
       297         -1.08099089        0.010000
       298         -1.08099212        0.010000
       299         -1.08099254        0.010000
       300         -1.08099428        0.010000
       301         -1.08099589        0.010000
       302         -1.08099723        0.010000
       303         -1.08100003        0.010000
       304         -1.08100071        0.010000
       305         -1.08100178        0.010000
       306         -1.08100547        0.010000
       307         -1.08100550        0.010000
       308         -1.08100562        0.010000
       309         -1.08100588        0.010000
       310         -1.08100594        0.010000
       311         -1.08100854        0.010000
       312         -1.08101034        0.010000
       313         -1.08101214        0.010000
       314         -1.08101499        0.010000
       315         -1.08101552        0.010000
       316         -1.08101850        0.010000
       317         -1.08102018        0.010000
       318         -1.08102053        0.010000
       319         -1.08102172        0.010000
       320         -1.08102187        0.007937
       321         -1.08102319        0.007937
       322         -1.08102592        0.007937
       323         -1.08102778        0.007937
       324         -1.08103005        0.007937
       325         -1.08103129        0.007937
       326         -1.08103287        0.007937
       327         -1.08103436        0.007937
       328         -1.08103688        0.007937
       329         -1.08103745        0.007937
       330         -1.08103837        0.007937
       331         -1.08103843        0.007937
       332         -1.08103993        0.007937
       333         -1.08104179        0.007937
       334         -1.08104182        0.007937
       335         -1.08104354        0.007937
       336         -1.08104513        0.007937
       337         -1.08104586        0.007937
       338         -1.08104861        0.007937
       339         -1.08104988        0.007937
       340         -1.08105193        0.007937
       341         -1.08105246        0.007937
       342         -1.08105247        0.007937
       343         -1.08105343        0.007937
       344         -1.08105402        0.007937
       345         -1.08105584        0.007937
       346         -1.08105684        0.007937
       347         -1.08105837        0.007937
       348         -1.08105919        0.007937
       349         -1.08106022        0.007937
       350         -1.08106025        0.007937
       351         -1.08106273        0.007937
       352         -1.08106282        0.007937
       353         -1.08106553        0.007937
       354         -1.08106634        0.007937
       355         -1.08106707        0.007937
       356         -1.08107084        0.007937
       357         -1.08107130        0.007937
       358         -1.08107401        0.007937
       359         -1.08107470        0.007937
       360         -1.08107505        0.007937
       361         -1.08107526        0.007937
       362         -1.08107627        0.007937
       363         -1.08107968        0.007937
       364         -1.08108062        0.007937
       365         -1.08108399        0.007937
       366         -1.08108491        0.007937
       367         -1.08108508        0.007937
       368         -1.08108664        0.007937
       369         -1.08108860        0.007937
       370         -1.08108929        0.007937
       371         -1.08108983        0.007937
       372         -1.08109007        0.007937
       373         -1.08109120        0.007937
       374         -1.08109381        0.007937
       375         -1.08109579        0.007937
       376         -1.08109640        0.007937
       377         -1.08109795        0.007937
       378         -1.08110001        0.007937
       379         -1.08110110        0.007937
       380         -1.08110230        0.007937
       381         -1.08110408        0.007937
       382         -1.08110425        0.007937
       383         -1.08110442        0.007937
       384         -1.08110476        0.007937
       385         -1.08110556        0.007937
       386         -1.08110694        0.007937
       387         -1.08110747        0.007937
       388         -1.08110756        0.007937
       389         -1.08110797        0.007937
       390         -1.08110965        0.007937
       391         -1.08111009        0.007937
       392         -1.08111099        0.007937
       393         -1.08111225        0.007937
       394         -1.08111255        0.007937
       395         -1.08111268        0.007937
       396         -1.08111301        0.007937
       397         -1.08111579        0.007937
       398         -1.08111685        0.007937
       399         -1.08111881        0.007937
       400         -1.08111895        0.007937
       401         -1.08111999        0.007937
       402         -1.08112079        0.007937
       403         -1.08112256        0.007937
       404         -1.08112306        0.007937
       405         -1.08112454        0.007937
       406         -1.08112538        0.007937
       407         -1.08112740        0.007937
       408         -1.08112791        0.007937
       409         -1.08112929        0.007937
       410         -1.08112956        0.007937
       411         -1.08113006        0.006300
       412         -1.08113084        0.006300
       413         -1.08113211        0.006300
       414         -1.08113263        0.006300
       415         -1.08113272        0.006300
       416         -1.08113418        0.006300
       417         -1.08113483        0.006300
       418         -1.08113540        0.006300
       419         -1.08113602        0.006300
       420         -1.08113644        0.006300
       421         -1.08113741        0.006300
       422         -1.08113910        0.006300
       423         -1.08114029        0.006300
       424         -1.08114168        0.005000
       425         -1.08114189        0.005000
       426         -1.08114324        0.005000
       427         -1.08114331        0.005000
       428         -1.08114345        0.005000
       429         -1.08114443        0.005000
       430         -1.08114519        0.005000
       431         -1.08114613        0.005000
       432         -1.08114673        0.005000
       433         -1.08114678        0.005000
       434         -1.08114780        0.005000
       435         -1.08114870        0.005000
       436         -1.08114912        0.005000
       437         -1.08114955        0.005000
       438         -1.08114970        0.005000
       439         -1.08114992        0.005000
       440         -1.08115127        0.005000
       441         -1.08115232        0.005000
       442         -1.08115380        0.005000
       443         -1.08115457        0.005000
       444         -1.08115497        0.005000
       445         -1.08115516        0.005000
       446         -1.08115525        0.005000
       447         -1.08115659        0.005000
       448         -1.08115686        0.005000
       449         -1.08115782        0.005000
       450         -1.08115797        0.005000
       451         -1.08115829        0.005000
       452         -1.08115893        0.005000
       453         -1.08115942        0.005000
       454         -1.08115993        0.005000
       455         -1.08116070        0.005000
       456         -1.08116158        0.005000
       457         -1.08116219        0.005000
       458         -1.08116316        0.005000
       459         -1.08116379        0.005000
       460         -1.08116414        0.005000
       461         -1.08116420        0.005000
       462         -1.08116437        0.005000
       463         -1.08116463        0.005000
       464         -1.08116582        0.005000
       465         -1.08116601        0.005000
       466         -1.08116671        0.005000
       467         -1.08116761        0.005000
       468         -1.08116782        0.005000
       469         -1.08116860        0.005000
       470         -1.08116972        0.005000
       471         -1.08116995        0.005000
       472         -1.08117009        0.005000
       473         -1.08117040        0.005000
       474         -1.08117145        0.005000
       475         -1.08117303        0.005000
       476         -1.08117312        0.005000
       477         -1.08117381        0.005000
       478         -1.08117503        0.005000
       479         -1.08117563        0.005000
       480         -1.08117598        0.005000
       481         -1.08117622        0.005000
       482         -1.08117652        0.005000
       483         -1.08117734        0.005000
       484         -1.08117813        0.005000
       485         -1.08117828        0.005000
       486         -1.08117894        0.005000
       487         -1.08117980        0.005000
       488         -1.08118064        0.005000
       489         -1.08118069        0.005000
       490         -1.08118130        0.005000
       491         -1.08118130        0.005000
       492         -1.08118217        0.005000
       493         -1.08118299        0.005000
       494         -1.08118428        0.005000
       495         -1.08118445        0.005000
       496         -1.08118499        0.005000
       497         -1.08118503        0.005000
       498         -1.08118540        0.003969
       499         -1.08118619        0.003969
       500         -1.08118622        0.003969
       501         -1.08118627        0.003969
       502         -1.08118685        0.003969
       503         -1.08118734        0.003969
       504         -1.08118815        0.003969
       505         -1.08118840        0.003969
       506         -1.08118876        0.003969
       507         -1.08118881        0.003969
       508         -1.08118910        0.003969
       509         -1.08119000        0.003969
       510         -1.08119028        0.003969
       511         -1.08119074        0.003969
       512         -1.08119170        0.003969
       513         -1.08119175        0.003969
       514         -1.08119255        0.003969
       515         -1.08119318        0.003969
       516         -1.08119330        0.003969
       517         -1.08119373        0.003969
       518         -1.08119439        0.003969
       519         -1.08119496        0.003969
       520         -1.08119523        0.003969
       521         -1.08119545        0.003969
       522         -1.08119573        0.003969
       523         -1.08119577        0.003969
       524         -1.08119579        0.003969
       525         -1.08119610        0.003969
       526         -1.08119621        0.003969
       527         -1.08119631        0.003969
       528         -1.08119662        0.003969
       529         -1.08119694        0.003969
       530         -1.08119804        0.003969
       531         -1.08119839        0.003969
       532         -1.08119910        0.003969
       533         -1.08119923        0.003969
       534         -1.08119963        0.003969
       535         -1.08119971        0.003969
       536         -1.08119981        0.003969
       537         -1.08119988        0.003969
       538         -1.08120007        0.003969
       539         -1.08120039        0.003969
       540         -1.08120047        0.003969
       541         -1.08120081        0.003969
       542         -1.08120111        0.003969
       543         -1.08120111        0.003969
       544         -1.08120111        0.003969
       545         -1.08120129        0.003969
       546         -1.08120192        0.003969
       547         -1.08120261        0.003969
       548         -1.08120283        0.003969
       549         -1.08120297        0.003969
       550         -1.08120332        0.003969
       551         -1.08120373        0.003150
       552         -1.08120393        0.003150
       553         -1.08120394        0.003150
       554         -1.08120433        0.003150
       555         -1.08120448        0.003150
       556         -1.08120507        0.003150
       557         -1.08120586        0.003150
       558         -1.08120586        0.003150
       559         -1.08120639        0.003150
       560         -1.08120660        0.003150
       561         -1.08120679        0.003150
       562         -1.08120695        0.003150
       563         -1.08120720        0.003150
       564         -1.08120743        0.003150
       565         -1.08120745        0.003150
       566         -1.08120765        0.003150
       567         -1.08120778        0.003150
       568         -1.08120783        0.003150
       569         -1.08120809        0.003150
       570         -1.08120824        0.003150
       571         -1.08120840        0.003150
       572         -1.08120848        0.003150
       573         -1.08120874        0.003150
       574         -1.08120898        0.003150
       575         -1.08120925        0.003150
       576         -1.08120969        0.003150
       577         -1.08120997        0.003150
       578         -1.08121040        0.003150
       579         -1.08121065        0.003150
       580         -1.08121092        0.003150
       581         -1.08121098        0.003150
       582         -1.08121109        0.003150
       583         -1.08121110        0.003150
       584         -1.08121132        0.002500
       585         -1.08121149        0.002500
       586         -1.08121158        0.002500
       587         -1.08121178        0.002500
       588         -1.08121206        0.002500
       589         -1.08121236        0.002500
       590         -1.08121237        0.002500
       591         -1.08121258        0.002500
       592         -1.08121321        0.002500
       593         -1.08121341        0.002500
       594         -1.08121359        0.002500
       595         -1.08121365        0.002500
       596         -1.08121373        0.002500
       597         -1.08121404        0.002500
       598         -1.08121439        0.002500
       599         -1.08121462        0.002500
       600         -1.08121493        0.002500
       601         -1.08121498        0.002500
       602         -1.08121565        0.002500
       603         -1.08121586        0.002500
       604         -1.08121616        0.002500
       605         -1.08121667        0.002500
       606         -1.08121674        0.002500
       607         -1.08121698        0.002500
       608         -1.08121701        0.002500
       609         -1.08121708        0.002500
       610         -1.08121709        0.002500
       611         -1.08121759        0.002500
       612         -1.08121785        0.002500
       613         -1.08121854        0.002500
       614         -1.08121875        0.002500
       615         -1.08121894        0.002500
       616         -1.08121912        0.002500
       617         -1.08121928        0.002500
       618         -1.08121932        0.002500
       619         -1.08121960        0.002500
       620         -1.08122001        0.002500
       621         -1.08122023        0.002500
       622         -1.08122035        0.002500
       623         -1.08122042        0.002500
       624         -1.08122051        0.002500
       625         -1.08122067        0.002500
       626         -1.08122075        0.002500
       627         -1.08122094        0.002500
       628         -1.08122131        0.002500
       629         -1.08122169        0.002500
       630         -1.08122173        0.002500
       631         -1.08122207        0.002500
       632         -1.08122257        0.002500
       633         -1.08122265        0.002500
       634         -1.08122281        0.002500
       635         -1.08122299        0.002500
       636         -1.08122342        0.002500
       637         -1.08122352        0.002500
       638         -1.08122386        0.002500
       639         -1.08122403        0.002500
       640         -1.08122415        0.002500
       641         -1.08122419        0.002500
       642         -1.08122427        0.002500
       643         -1.08122437        0.002500
       644         -1.08122462        0.002500
       645         -1.08122484        0.002500
       646         -1.08122503        0.002500
       647         -1.08122523        0.002500
       648         -1.08122579        0.002500
       649         -1.08122579        0.002500
       650         -1.08122582        0.002500
       651         -1.08122590        0.002500
       652         -1.08122604        0.002500
       653         -1.08122644        0.002500
       654         -1.08122655        0.002500
       655         -1.08122669        0.002500
       656         -1.08122679        0.002500
       657         -1.08122735        0.002500
       658         -1.08122738        0.002500
       659         -1.08122741        0.002500
       660         -1.08122758        0.002500
       661         -1.08122785        0.002500
       662         -1.08122788        0.002500
       663         -1.08122802        0.002500
       664         -1.08122803        0.002500
       665         -1.08122815        0.002500
       666         -1.08122855        0.002500
       667         -1.08122884        0.002500
       668         -1.08122890        0.002500
       669         -1.08122912        0.002500
       670         -1.08122941        0.002500
       671         -1.08122954        0.002500
       672         -1.08123015        0.002500
       673         -1.08123023        0.002500
       674         -1.08123063        0.002500
       675         -1.08123064        0.002500
       676         -1.08123075        0.002500
       677         -1.08123134        0.002500
       678         -1.08123151        0.002500
       679         -1.08123155        0.002500
       680         -1.08123188        0.002500
       681         -1.08123227        0.002500
       682         -1.08123228        0.002500
       683         -1.08123230        0.002500
       684         -1.08123254        0.002500
       685         -1.08123276        0.002500
       686         -1.08123280        0.002500
       687         -1.08123308        0.002500
       688         -1.08123318        0.002500
       689         -1.08123329        0.002500
       690         -1.08123351        0.002500
       691         -1.08123355        0.002500
       692         -1.08123379        0.002500
       693         -1.08123387        0.002500
       694         -1.08123406        0.002500
       695         -1.08123435        0.002500
       696         -1.08123438        0.002500
       697         -1.08123485        0.002500
       698         -1.08123495        0.002500
       699         -1.08123508        0.002500
       700         -1.08123535        0.002500
       701         -1.08123541        0.002500
       702         -1.08123541        0.002500
       703         -1.08123546        0.002500
       704         -1.08123551        0.002500
       705         -1.08123559        0.002500
       706         -1.08123563        0.002500
       707         -1.08123590        0.002500
       708         -1.08123590        0.002500
       709         -1.08123641        0.002500
       710         -1.08123685        0.002500
       711         -1.08123691        0.002500
       712         -1.08123710        0.002500
       713         -1.08123723        0.002500
       714         -1.08123746        0.002500
       715         -1.08123784        0.002500
       716         -1.08123796        0.002500
       717         -1.08123827        0.002500
       718         -1.08123829        0.002500
       719         -1.08123853        0.002500
       720         -1.08123869        0.002500
       721         -1.08123870        0.002500
       722         -1.08123892        0.002500
       723         -1.08123925        0.002500
       724         -1.08123928        0.002500
       725         -1.08123949        0.002500
       726         -1.08123979        0.002500
       727         -1.08123988        0.002500
       728         -1.08124005        0.002500
       729         -1.08124023        0.002500
       730         -1.08124051        0.002500
       731         -1.08124070        0.002500
       732         -1.08124098        0.002500
       733         -1.08124118        0.002500
       734         -1.08124138        0.002500
       735         -1.08124165        0.002500
       736         -1.08124180        0.002500
       737         -1.08124196        0.002500
       738         -1.08124231        0.002500
       739         -1.08124259        0.002500
       740         -1.08124267        0.002500
       741         -1.08124293        0.002500
       742         -1.08124315        0.002500
       743         -1.08124335        0.002500
       744         -1.08124345        0.002500
       745         -1.08124352        0.002500
       746         -1.08124371        0.002500
       747         -1.08124376        0.002500
       748         -1.08124392        0.002500
       749         -1.08124405        0.002500
       750         -1.08124409        0.002500
       751         -1.08124416        0.002500
       752         -1.08124458        0.002500
       753         -1.08124461        0.001984
       754         -1.08124466        0.001984
       755         -1.08124469        0.001984
       756         -1.08124480        0.001984
       757         -1.08124488        0.001984
       758         -1.08124491        0.001984
       759         -1.08124496        0.001984
       760         -1.08124500        0.001984
       761         -1.08124543        0.001984
       762         -1.08124548        0.001984
       763         -1.08124552        0.001984
       764         -1.08124553        0.001984
       765         -1.08124559        0.001984
       766         -1.08124561        0.001984
       767         -1.08124568        0.001984
       768         -1.08124575        0.001984
       769         -1.08124579        0.001984
       770         -1.08124582        0.001984
       771         -1.08124606        0.001984
       772         -1.08124609        0.001984
       773         -1.08124609        0.001984
       774         -1.08124630        0.001984
       775         -1.08124633        0.001984
       776         -1.08124654        0.001984
       777         -1.08124665        0.001984
       778         -1.08124682        0.001984
       779         -1.08124695        0.001984
       780         -1.08124699        0.001984
       781         -1.08124702        0.001984
       782         -1.08124719        0.001984
       783         -1.08124723        0.001984
       784         -1.08124736        0.001984
       785         -1.08124750        0.001984
       786         -1.08124782        0.001984
       787         -1.08124804        0.001984
       788         -1.08124810        0.001984
       789         -1.08124816        0.001984
       790         -1.08124843        0.001984
       791         -1.08124844        0.001984
       792         -1.08124867        0.001984
       793         -1.08124888        0.001984
       794         -1.08124898        0.001984
       795         -1.08124909        0.001984
       796         -1.08124935        0.001984
       797         -1.08124940        0.001984
       798         -1.08124943        0.001984
       799         -1.08124960        0.001984
       800         -1.08124979        0.001984
       801         -1.08124980        0.001984
       802         -1.08124989        0.001984
       803         -1.08125002        0.001984
       804         -1.08125003        0.001984
       805         -1.08125004        0.001984
       806         -1.08125018        0.001984
       807         -1.08125059        0.001984
       808         -1.08125079        0.001984
       809         -1.08125102        0.001984
       810         -1.08125119        0.001984
       811         -1.08125120        0.001984
       812         -1.08125123        0.001984
       813         -1.08125124        0.001984
       814         -1.08125129        0.001984
       815         -1.08125145        0.001984
       816         -1.08125173        0.001984
       817         -1.08125196        0.001984
       818         -1.08125221        0.001984
       819         -1.08125237        0.001984
       820         -1.08125244        0.001984
       821         -1.08125249        0.001984
       822         -1.08125254        0.001984
       823         -1.08125260        0.001984
       824         -1.08125277        0.001984
       825         -1.08125310        0.001984
       826         -1.08125323        0.001984
       827         -1.08125331        0.001984
       828         -1.08125338        0.001984
       829         -1.08125358        0.001984
       830         -1.08125381        0.001984
       831         -1.08125383        0.001984
       832         -1.08125401        0.001984
       833         -1.08125422        0.001984
       834         -1.08125432        0.001984
       835         -1.08125446        0.001984
       836         -1.08125456        0.001984
       837         -1.08125477        0.001984
       838         -1.08125504        0.001984
       839         -1.08125513        0.001984
       840         -1.08125520        0.001984
       841         -1.08125526        0.001984
       842         -1.08125536        0.001984
       843         -1.08125561        0.001984
       844         -1.08125582        0.001984
       845         -1.08125583        0.001575
       846         -1.08125607        0.001575
       847         -1.08125612        0.001575
       848         -1.08125621        0.001575
       849         -1.08125635        0.001575
       850         -1.08125645        0.001575
       851         -1.08125662        0.001575
       852         -1.08125669        0.001575
       853         -1.08125671        0.001575
       854         -1.08125674        0.001575
       855         -1.08125679        0.001575
       856         -1.08125693        0.001575
       857         -1.08125714        0.001575
       858         -1.08125746        0.001575
       859         -1.08125758        0.001575
       860         -1.08125762        0.001575
       861         -1.08125773        0.001575
       862         -1.08125780        0.001575
       863         -1.08125783        0.001575
       864         -1.08125784        0.001575
       865         -1.08125790        0.001575
       866         -1.08125794        0.001575
       867         -1.08125825        0.001575
       868         -1.08125842        0.001575
       869         -1.08125857        0.001575
       870         -1.08125870        0.001575
       871         -1.08125889        0.001575
       872         -1.08125901        0.001575
       873         -1.08125914        0.001575
       874         -1.08125929        0.001575
       875         -1.08125935        0.001575
       876         -1.08125941        0.001575
       877         -1.08125943        0.001575
       878         -1.08125955        0.001575
       879         -1.08125959        0.001575
       880         -1.08125968        0.001575
       881         -1.08125976        0.001575
       882         -1.08125990        0.001575
       883         -1.08125990        0.001575
       884         -1.08125996        0.001575
       885         -1.08125996        0.001575
       886         -1.08125999        0.001575
       887         -1.08126007        0.001575
       888         -1.08126015        0.001575
       889         -1.08126042        0.001575
       890         -1.08126062        0.001575
       891         -1.08126065        0.001575
       892         -1.08126076        0.001575
       893         -1.08126096        0.001575
       894         -1.08126097        0.001575
       895         -1.08126110        0.001575
       896         -1.08126111        0.001575
       897         -1.08126115        0.001575
       898         -1.08126117        0.001575
       899         -1.08126118        0.001575
       900         -1.08126138        0.001575
       901         -1.08126150        0.001575
       902         -1.08126167        0.001575
       903         -1.08126176        0.001575
       904         -1.08126181        0.001575
       905         -1.08126190        0.001575
       906         -1.08126197        0.001575
       907         -1.08126202        0.001575
       908         -1.08126207        0.001575
       909         -1.08126232        0.001575
       910         -1.08126238        0.001575
       911         -1.08126239        0.001575
       912         -1.08126244        0.001575
       913         -1.08126261        0.001575
       914         -1.08126276        0.001575
       915         -1.08126282        0.001575
       916         -1.08126292        0.001575
       917         -1.08126299        0.001575
       918         -1.08126319        0.001575
       919         -1.08126336        0.001575
       920         -1.08126346        0.001575
       921         -1.08126355        0.001575
       922         -1.08126369        0.001575
       923         -1.08126374        0.001575
       924         -1.08126384        0.001575
       925         -1.08126387        0.001575
       926         -1.08126390        0.001575
       927         -1.08126401        0.001575
       928         -1.08126415        0.001575
       929         -1.08126418        0.001575
       930         -1.08126426        0.001575
       931         -1.08126443        0.001575
       932         -1.08126445        0.001575
       933         -1.08126448        0.001575
       934         -1.08126456        0.001575
       935         -1.08126486        0.001575
       936         -1.08126505        0.001575
       937         -1.08126509        0.001575
       938         -1.08126517        0.001575
       939         -1.08126540        0.001575
       940         -1.08126563        0.001575
       941         -1.08126565        0.001575
       942         -1.08126570        0.001575
       943         -1.08126570        0.001575
       944         -1.08126580        0.001575
       945         -1.08126581        0.001575
       946         -1.08126584        0.001575
       947         -1.08126598        0.001575
       948         -1.08126600        0.001575
       949         -1.08126607        0.001575
       950         -1.08126609        0.001575
       951         -1.08126614        0.001575
       952         -1.08126616        0.001575
       953         -1.08126619        0.001575
       954         -1.08126638        0.001575
       955         -1.08126646        0.001575
       956         -1.08126658        0.001575
       957         -1.08126668        0.001575
       958         -1.08126669        0.001575
       959         -1.08126677        0.001575
       960         -1.08126683        0.001575
       961         -1.08126699        0.001575
       962         -1.08126707        0.001575
       963         -1.08126715        0.001575
       964         -1.08126721        0.001575
       965         -1.08126733        0.001575
       966         -1.08126746        0.001575
       967         -1.08126771        0.001575
       968         -1.08126771        0.001575
       969         -1.08126777        0.001575
       970         -1.08126777        0.001575
       971         -1.08126781        0.001575
       972         -1.08126787        0.001575
       973         -1.08126787        0.001575
       974         -1.08126792        0.001575
       975         -1.08126797        0.001575
       976         -1.08126806        0.001575
       977         -1.08126824        0.001575
       978         -1.08126829        0.001575
       979         -1.08126844        0.001575
       980         -1.08126846        0.001575
       981         -1.08126854        0.001575
       982         -1.08126870        0.001575
       983         -1.08126878        0.001575
       984         -1.08126886        0.001575
       985         -1.08126900        0.001575
       986         -1.08126902        0.001575
       987         -1.08126904        0.001575
       988         -1.08126922        0.001575
       989         -1.08126944        0.001575
       990         -1.08126951        0.001575
       991         -1.08126956        0.001575
       992         -1.08126963        0.001575
       993         -1.08126984        0.001575
       994         -1.08126995        0.001575
       995         -1.08127022        0.001575
       996         -1.08127028        0.001575
       997         -1.08127033        0.001575
       998         -1.08127057        0.001575
       999         -1.08127058        0.001575
      1000         -1.08127071        0.001575
      1001         -1.08127082        0.001575
      1002         -1.08127082        0.001575
      1003         -1.08127088        0.001575
      1004         -1.08127088        0.001575
      1005         -1.08127107        0.001575
      1006         -1.08127113        0.001575
      1007         -1.08127127        0.001575
      1008         -1.08127136        0.001575
      1009         -1.08127136        0.001575
      1010         -1.08127139        0.001575
      1011         -1.08127144        0.001575
      1012         -1.08127169        0.001575
      1013         -1.08127176        0.001575
      1014         -1.08127190        0.001575
      1015         -1.08127199        0.001575
      1016         -1.08127212        0.001575
      1017         -1.08127221        0.001575
      1018         -1.08127224        0.001575
      1019         -1.08127226        0.001575
      1020         -1.08127252        0.001575
      1021         -1.08127256        0.001575
      1022         -1.08127262        0.001575
      1023         -1.08127269        0.001575
      1024         -1.08127279        0.001575
      1025         -1.08127282        0.001575
      1026         -1.08127285        0.001575
      1027         -1.08127301        0.001575
      1028         -1.08127303        0.001575
      1029         -1.08127304        0.001575
      1030         -1.08127312        0.001575
      1031         -1.08127321        0.001575
      1032         -1.08127326        0.001575
      1033         -1.08127333        0.001575
      1034         -1.08127335        0.001575
      1035         -1.08127336        0.001575
      1036         -1.08127347        0.001575
      1037         -1.08127351        0.001575
      1038         -1.08127352        0.001575
      1039         -1.08127361        0.001575
      1040         -1.08127366        0.001575
      1041         -1.08127375        0.001575
      1042         -1.08127393        0.001575
      1043         -1.08127404        0.001575
      1044         -1.08127404        0.001575
      1045         -1.08127420        0.001575
      1046         -1.08127426        0.001250
      1047         -1.08127432        0.001250
      1048         -1.08127436        0.001250
      1049         -1.08127444        0.001250
      1050         -1.08127455        0.001250
      1051         -1.08127455        0.001250
      1052         -1.08127457        0.001250
      1053         -1.08127463        0.001250
      1054         -1.08127470        0.001250
      1055         -1.08127472        0.001250
      1056         -1.08127475        0.001250
      1057         -1.08127475        0.001250
      1058         -1.08127477        0.001250
      1059         -1.08127479        0.001250
      1060         -1.08127484        0.001250
      1061         -1.08127493        0.001250
      1062         -1.08127499        0.001250
      1063         -1.08127506        0.001250
      1064         -1.08127511        0.001250
      1065         -1.08127513        0.001250
      1066         -1.08127520        0.001250
      1067         -1.08127524        0.001250
      1068         -1.08127529        0.001250
      1069         -1.08127534        0.001250
      1070         -1.08127540        0.001250
      1071         -1.08127545        0.001250
      1072         -1.08127547        0.001250
      1073         -1.08127553        0.001250
      1074         -1.08127554        0.001250
      1075         -1.08127559        0.001250
      1076         -1.08127559        0.001250
      1077         -1.08127574        0.001250
      1078         -1.08127581        0.001250
      1079         -1.08127587        0.001250
      1080         -1.08127592        0.001250
      1081         -1.08127597        0.001250
      1082         -1.08127603        0.001250
      1083         -1.08127606        0.001250
      1084         -1.08127612        0.001250
      1085         -1.08127612        0.001250
      1086         -1.08127613        0.001250
      1087         -1.08127617        0.001250
      1088         -1.08127624        0.001250
      1089         -1.08127628        0.001250
      1090         -1.08127636        0.001250
      1091         -1.08127641        0.001250
      1092         -1.08127648        0.001250
      1093         -1.08127648        0.001250
      1094         -1.08127651        0.001250
      1095         -1.08127654        0.001250
      1096         -1.08127656        0.001250
      1097         -1.08127657        0.001250
      1098         -1.08127663        0.001250
      1099         -1.08127667        0.001250
      1100         -1.08127674        0.001250
      1101         -1.08127678        0.001250
      1102         -1.08127685        0.001250
      1103         -1.08127686        0.001250
      1104         -1.08127692        0.001250
      1105         -1.08127696        0.001250
      1106         -1.08127708        0.001250
      1107         -1.08127714        0.001250
      1108         -1.08127719        0.001250
      1109         -1.08127723        0.001250
      1110         -1.08127733        0.001250
      1111         -1.08127737        0.001250
      1112         -1.08127749        0.001250
      1113         -1.08127751        0.001250
      1114         -1.08127755        0.001250
      1115         -1.08127766        0.001250
      1116         -1.08127768        0.001250
      1117         -1.08127774        0.001250
      1118         -1.08127783        0.001250
      1119         -1.08127786        0.001250
      1120         -1.08127789        0.001250
      1121         -1.08127793        0.001250
      1122         -1.08127794        0.001250
      1123         -1.08127800        0.001250
      1124         -1.08127802        0.001250
      1125         -1.08127818        0.001250
      1126         -1.08127821        0.001250
      1127         -1.08127824        0.001250
      1128         -1.08127826        0.001250
      1129         -1.08127826        0.001250
      1130         -1.08127831        0.001250
      1131         -1.08127834        0.001250
      1132         -1.08127839        0.001250
      1133         -1.08127842        0.001250
      1134         -1.08127848        0.001250
      1135         -1.08127851        0.001250
      1136         -1.08127853        0.001250
      1137         -1.08127857        0.001250
      1138         -1.08127860        0.001250
      1139         -1.08127868        0.001250
      1140         -1.08127870        0.001250
      1141         -1.08127873        0.001250
      1142         -1.08127878        0.001250
      1143         -1.08127889        0.001250
      1144         -1.08127893        0.001250
      1145         -1.08127894        0.001250
      1146         -1.08127898        0.001250
      1147         -1.08127907        0.001250
      1148         -1.08127908        0.001250
      1149         -1.08127920        0.001250
      1150         -1.08127926        0.001250
      1151         -1.08127927        0.001250
      1152         -1.08127928        0.001250
      1153         -1.08127935        0.001250
      1154         -1.08127939        0.001250
      1155         -1.08127939        0.001250
      1156         -1.08127944        0.001250
      1157         -1.08127948        0.001250
      1158         -1.08127952        0.001250
      1159         -1.08127958        0.001250
      1160         -1.08127960        0.001250
      1161         -1.08127968        0.001250
      1162         -1.08127974        0.001250
      1163         -1.08127982        0.001250
      1164         -1.08127987        0.001250
      1165         -1.08127988        0.001250
      1166         -1.08127993        0.001250
      1167         -1.08127996        0.001250
      1168         -1.08127999        0.001250
      1169         -1.08128004        0.001250
      1170         -1.08128009        0.001250
      1171         -1.08128012        0.001250
      1172         -1.08128018        0.001250
      1173         -1.08128024        0.001250
      1174         -1.08128030        0.001250
      1175         -1.08128034        0.001250
      1176         -1.08128042        0.001250
      1177         -1.08128043        0.001250
      1178         -1.08128047        0.001250
      1179         -1.08128048        0.001250
      1180         -1.08128063        0.001250
      1181         -1.08128072        0.001250
      1182         -1.08128075        0.001250
      1183         -1.08128080        0.001250
      1184         -1.08128093        0.001250
      1185         -1.08128105        0.001250
      1186         -1.08128105        0.001250
      1187         -1.08128115        0.001250
      1188         -1.08128125        0.001250
      1189         -1.08128130        0.001250
      1190         -1.08128131        0.001250
      1191         -1.08128134        0.001250
      1192         -1.08128143        0.001250
      1193         -1.08128150        0.001250
      1194         -1.08128151        0.001250
      1195         -1.08128160        0.001250
      1196         -1.08128161        0.001250
      1197         -1.08128168        0.001250
      1198         -1.08128168        0.001250
      1199         -1.08128171        0.001250
      1200         -1.08128172        0.001250
      1201         -1.08128176        0.001250
      1202         -1.08128181        0.001250
      1203         -1.08128185        0.001250
      1204         -1.08128197        0.001250
      1205         -1.08128200        0.001250
      1206         -1.08128204        0.001250
      1207         -1.08128209        0.001250
      1208         -1.08128217        0.001250
      1209         -1.08128219        0.001250
      1210         -1.08128222        0.001250
      1211         -1.08128229        0.001250
      1212         -1.08128231        0.001250
      1213         -1.08128232        0.001250
      1214         -1.08128238        0.001250
      1215         -1.08128245        0.001250
      1216         -1.08128251        0.001250
      1217         -1.08128258        0.001250
      1218         -1.08128263        0.001250
      1219         -1.08128266        0.001250
      1220         -1.08128274        0.001250
      1221         -1.08128274        0.001250
      1222         -1.08128275        0.001250
      1223         -1.08128280        0.001250
      1224         -1.08128280        0.001250
      1225         -1.08128289        0.001250
      1226         -1.08128290        0.001250
      1227         -1.08128290        0.001250
      1228         -1.08128307        0.001250
      1229         -1.08128308        0.001250
      1230         -1.08128314        0.001250
      1231         -1.08128317        0.001250
      1232         -1.08128330        0.001250
      1233         -1.08128332        0.001250
      1234         -1.08128340        0.001250
      1235         -1.08128342        0.001250
      1236         -1.08128343        0.001250
      1237         -1.08128348        0.001250
      1238         -1.08128354        0.001250
      1239         -1.08128357        0.001250
      1240         -1.08128365        0.001250
      1241         -1.08128372        0.001250
      1242         -1.08128375        0.001250
      1243         -1.08128388        0.001250
      1244         -1.08128402        0.001250
      1245         -1.08128403        0.001250
      1246         -1.08128408        0.001250
      1247         -1.08128414        0.001250
      1248         -1.08128419        0.001250
      1249         -1.08128421        0.001250
      1250         -1.08128429        0.001250
      1251         -1.08128430        0.001250
      1252         -1.08128438        0.001250
      1253         -1.08128443        0.001250
      1254         -1.08128455        0.001250
      1255         -1.08128456        0.001250
      1256         -1.08128458        0.001250
      1257         -1.08128463        0.001250
      1258         -1.08128469        0.001250
      1259         -1.08128470        0.001250
      1260         -1.08128471        0.001250
      1261         -1.08128472        0.001250
      1262         -1.08128476        0.001250
      1263         -1.08128477        0.001250
      1264         -1.08128480        0.001250
      1265         -1.08128490        0.001250
      1266         -1.08128497        0.001250
      1267         -1.08128505        0.001250
      1268         -1.08128506        0.001250
      1269         -1.08128509        0.001250
      1270         -1.08128514        0.001250
      1271         -1.08128515        0.001250
      1272         -1.08128522        0.001250
      1273         -1.08128523        0.001250
      1274         -1.08128525        0.001250
      1275         -1.08128534        0.001250
      1276         -1.08128544        0.001250
      1277         -1.08128548        0.001250
      1278         -1.08128557        0.001250
      1279         -1.08128557        0.001250
      1280         -1.08128563        0.001250
      1281         -1.08128565        0.001250
      1282         -1.08128569        0.001250
      1283         -1.08128569        0.001250
      1284         -1.08128572        0.001250
      1285         -1.08128583        0.001250
      1286         -1.08128590        0.001250
      1287         -1.08128592        0.001250
      1288         -1.08128597        0.001250
      1289         -1.08128602        0.001250
      1290         -1.08128612        0.001250
      1291         -1.08128621        0.001250
      1292         -1.08128621        0.001250
      1293         -1.08128630        0.001250
      1294         -1.08128631        0.001250
      1295         -1.08128636        0.001250
      1296         -1.08128646        0.001250
      1297         -1.08128649        0.001250
      1298         -1.08128649        0.001250
      1299         -1.08128651        0.001250
      1300         -1.08128657        0.001250
      1301         -1.08128659        0.001250
      1302         -1.08128664        0.001250
      1303         -1.08128671        0.001250
      1304         -1.08128679        0.001250
      1305         -1.08128683        0.001250
      1306         -1.08128684        0.001250
      1307         -1.08128689        0.001250
      1308         -1.08128693        0.001250
      1309         -1.08128702        0.001250
      1310         -1.08128704        0.001250
      1311         -1.08128712        0.001250
      1312         -1.08128718        0.001250
      1313         -1.08128730        0.001250
      1314         -1.08128737        0.001250
      1315         -1.08128740        0.001250
      1316         -1.08128745        0.001250
      1317         -1.08128750        0.001250
      1318         -1.08128757        0.001250
      1319         -1.08128760        0.001250
      1320         -1.08128762        0.001250
      1321         -1.08128762        0.001250
      1322         -1.08128762        0.001250
      1323         -1.08128764        0.001250
      1324         -1.08128770        0.001250
      1325         -1.08128771        0.001250
      1326         -1.08128772        0.001250
      1327         -1.08128780        0.001250
      1328         -1.08128780        0.001250
      1329         -1.08128782        0.001250
      1330         -1.08128790        0.001250
      1331         -1.08128794        0.001250
      1332         -1.08128797        0.001250
      1333         -1.08128804        0.001250
      1334         -1.08128810        0.001250
      1335         -1.08128818        0.001250
      1336         -1.08128825        0.001250
      1337         -1.08128826        0.001250
      1338         -1.08128826        0.001250
      1339         -1.08128829        0.001250
      1340         -1.08128834        0.001250
      1341         -1.08128835        0.001250
      1342         -1.08128837        0.001250
      1343         -1.08128837        0.001250
      1344         -1.08128844        0.001250
      1345         -1.08128850        0.001250
      1346         -1.08128854        0.001250
      1347         -1.08128855        0.001250
      1348         -1.08128857        0.001250
      1349         -1.08128858        0.001250
      1350         -1.08128866        0.001250
      1351         -1.08128875        0.001250
      1352         -1.08128882        0.001250
      1353         -1.08128888        0.001250
      1354         -1.08128891        0.001250
      1355         -1.08128904        0.001250
      1356         -1.08128905        0.001250
      1357         -1.08128909        0.000992
      1358         -1.08128910        0.000992
      1359         -1.08128917        0.000992
      1360         -1.08128924        0.000992
      1361         -1.08128929        0.000992
      1362         -1.08128935        0.000992
      1363         -1.08128937        0.000992
      1364         -1.08128942        0.000992
      1365         -1.08128943        0.000992
      1366         -1.08128947        0.000992
      1367         -1.08128950        0.000992
      1368         -1.08128952        0.000992
      1369         -1.08128955        0.000992
      1370         -1.08128957        0.000992
      1371         -1.08128958        0.000992
      1372         -1.08128958        0.000992
      1373         -1.08128958        0.000992
      1374         -1.08128964        0.000992
      1375         -1.08128968        0.000992
      1376         -1.08128969        0.000992
      1377         -1.08128970        0.000992
      1378         -1.08128971        0.000992
      1379         -1.08128976        0.000992
      1380         -1.08128986        0.000992
      1381         -1.08128989        0.000992
      1382         -1.08128989        0.000992
      1383         -1.08128996        0.000992
      1384         -1.08129003        0.000992
      1385         -1.08129003        0.000992
      1386         -1.08129008        0.000992
      1387         -1.08129012        0.000992
      1388         -1.08129014        0.000992
      1389         -1.08129019        0.000992
      1390         -1.08129020        0.000992
      1391         -1.08129025        0.000992
      1392         -1.08129032        0.000992
      1393         -1.08129033        0.000992
      1394         -1.08129033        0.000992
      1395         -1.08129033        0.000992
      1396         -1.08129035        0.000992
      1397         -1.08129041        0.000992
      1398         -1.08129045        0.000992
      1399         -1.08129047        0.000992
      1400         -1.08129051        0.000992
      1401         -1.08129052        0.000992
      1402         -1.08129054        0.000992
      1403         -1.08129056        0.000992
      1404         -1.08129056        0.000992
      1405         -1.08129071        0.000992
      1406         -1.08129074        0.000992
      1407         -1.08129083        0.000992
      1408         -1.08129083        0.000992
      1409         -1.08129086        0.000992
      1410         -1.08129091        0.000992
      1411         -1.08129092        0.000992
      1412         -1.08129101        0.000992
      1413         -1.08129106        0.000992
      1414         -1.08129113        0.000992
      1415         -1.08129113        0.000992
      1416         -1.08129119        0.000992
      1417         -1.08129122        0.000992
      1418         -1.08129128        0.000992
      1419         -1.08129131        0.000992
      1420         -1.08129134        0.000992
      1421         -1.08129135        0.000992
      1422         -1.08129135        0.000992
      1423         -1.08129141        0.000992
      1424         -1.08129142        0.000992
      1425         -1.08129143        0.000992
      1426         -1.08129144        0.000992
      1427         -1.08129146        0.000992
      1428         -1.08129146        0.000992
      1429         -1.08129149        0.000992
      1430         -1.08129153        0.000992
      1431         -1.08129158        0.000992
      1432         -1.08129159        0.000992
      1433         -1.08129161        0.000992
      1434         -1.08129165        0.000992
      1435         -1.08129166        0.000992
      1436         -1.08129170        0.000992
      1437         -1.08129171        0.000992
      1438         -1.08129173        0.000992
      1439         -1.08129179        0.000992
      1440         -1.08129185        0.000992
      1441         -1.08129187        0.000992
      1442         -1.08129187        0.000992
      1443         -1.08129190        0.000992
      1444         -1.08129190        0.000992
      1445         -1.08129190        0.000992
      1446         -1.08129195        0.000992
      1447         -1.08129197        0.000992
      1448         -1.08129198        0.000992
      1449         -1.08129205        0.000992
      1450         -1.08129208        0.000992
      1451         -1.08129213        0.000992
      1452         -1.08129219        0.000992
      1453         -1.08129221        0.000992
      1454         -1.08129224        0.000992
      1455         -1.08129228        0.000992
      1456         -1.08129234        0.000992
      1457         -1.08129234        0.000992
      1458         -1.08129236        0.000992
      1459         -1.08129241        0.000992
      1460         -1.08129244        0.000992
      1461         -1.08129249        0.000992
      1462         -1.08129251        0.000992
      1463         -1.08129251        0.000992
      1464         -1.08129259        0.000992
      1465         -1.08129264        0.000992
      1466         -1.08129265        0.000992
      1467         -1.08129269        0.000992
      1468         -1.08129276        0.000992
      1469         -1.08129277        0.000992
      1470         -1.08129278        0.000992
      1471         -1.08129286        0.000992
      1472         -1.08129287        0.000992
      1473         -1.08129289        0.000992
      1474         -1.08129294        0.000992
      1475         -1.08129295        0.000992
      1476         -1.08129297        0.000992
      1477         -1.08129300        0.000992
      1478         -1.08129301        0.000992
      1479         -1.08129305        0.000992
      1480         -1.08129309        0.000992
      1481         -1.08129314        0.000992
      1482         -1.08129314        0.000992
      1483         -1.08129316        0.000992
      1484         -1.08129316        0.000992
      1485         -1.08129317        0.000992
      1486         -1.08129318        0.000992
      1487         -1.08129320        0.000992
      1488         -1.08129323        0.000992
      1489         -1.08129325        0.000992
      1490         -1.08129328        0.000992
      1491         -1.08129330        0.000992
      1492         -1.08129331        0.000992
      1493         -1.08129333        0.000992
      1494         -1.08129333        0.000992
      1495         -1.08129334        0.000992
      1496         -1.08129334        0.000992
      1497         -1.08129335        0.000992
      1498         -1.08129337        0.000992
      1499         -1.08129339        0.000992
      1500         -1.08129339        0.000992
      1501         -1.08129340        0.000992
      1502         -1.08129342        0.000992
      1503         -1.08129348        0.000992
      1504         -1.08129353        0.000992
      1505         -1.08129353        0.000992
      1506         -1.08129353        0.000992
      1507         -1.08129356        0.000992
      1508         -1.08129357        0.000992
      1509         -1.08129357        0.000992
      1510         -1.08129361        0.000992
      1511         -1.08129362        0.000992
      1512         -1.08129362        0.000992
      1513         -1.08129366        0.000992
      1514         -1.08129366        0.000992
      1515         -1.08129371        0.000992
      1516         -1.08129373        0.000992
      1517         -1.08129380        0.000992
      1518         -1.08129380        0.000992
      1519         -1.08129388        0.000992
      1520         -1.08129390        0.000992
      1521         -1.08129392        0.000992
      1522         -1.08129395        0.000992
      1523         -1.08129397        0.000992
      1524         -1.08129403        0.000992
      1525         -1.08129403        0.000992
      1526         -1.08129407        0.000992
      1527         -1.08129408        0.000992
      1528         -1.08129415        0.000992
      1529         -1.08129418        0.000992
      1530         -1.08129420        0.000992
      1531         -1.08129425        0.000992
      1532         -1.08129430        0.000992
      1533         -1.08129436        0.000992
      1534         -1.08129439        0.000992
      1535         -1.08129440        0.000992
      1536         -1.08129448        0.000992
      1537         -1.08129452        0.000992
      1538         -1.08129455        0.000992
      1539         -1.08129464        0.000992
      1540         -1.08129466        0.000992
      1541         -1.08129468        0.000992
      1542         -1.08129476        0.000992
      1543         -1.08129480        0.000992
      1544         -1.08129485        0.000992
      1545         -1.08129487        0.000992
      1546         -1.08129488        0.000992
      1547         -1.08129489        0.000992
      1548         -1.08129489        0.000992
      1549         -1.08129493        0.000992
      1550         -1.08129498        0.000992
      1551         -1.08129499        0.000992
      1552         -1.08129502        0.000992
[...]
     13703         -1.08131236        0.000001
     13704         -1.08131236        0.000001
     13705         -1.08131236        0.000001
     13706         -1.08131236        0.000001
     13707         -1.08131236        0.000001
     13708         -1.08131236        0.000001
     13709         -1.08131236        0.000001
     13710         -1.08131236        0.000001
     13711         -1.08131236        0.000001
     13712         -1.08131236        0.000001
     13713         -1.08131236        0.000001
     13714         -1.08131236        0.000001
     13715         -1.08131236        0.000001
     13716         -1.08131236        0.000001
     13717         -1.08131236        0.000001
     13718         -1.08131236        0.000001
     13719         -1.08131236        0.000001
     13720         -1.08131236        0.000001
     13721         -1.08131236        0.000001
     13722         -1.08131236        0.000001
     13723         -1.08131236        0.000001
     13724         -1.08131236        0.000001
     13725         -1.08131236        0.000001
     13726         -1.08131236        0.000001
     13727         -1.08131236        0.000001
     13728         -1.08131236        0.000001
     13729         -1.08131236        0.000001
     13730         -1.08131236        0.000001
     13731         -1.08131236        0.000001
     13732         -1.08131236        0.000001
     13733         -1.08131236        0.000001
     13734         -1.08131236        0.000001
     13735         -1.08131236        0.000001
     13736         -1.08131236        0.000001
     13737         -1.08131236        0.000001
     13738         -1.08131236        0.000001
     13739         -1.08131236        0.000001
     13740         -1.08131236        0.000001
     13741         -1.08131236        0.000001
     13742         -1.08131236        0.000001
     13743         -1.08131236        0.000001
     13744         -1.08131236        0.000001
     13745         -1.08131236        0.000001
     13746         -1.08131236        0.000001
     13747         -1.08131236        0.000001
     13748         -1.08131236        0.000001
     13749         -1.08131236        0.000001
     13750         -1.08131236        0.000001
     13751         -1.08131236        0.000001
     13752         -1.08131236        0.000001
     13753         -1.08131236        0.000001
     13754         -1.08131236        0.000001
     13755         -1.08131236        0.000001
     13756         -1.08131236        0.000001
     13757         -1.08131236        0.000001
     13758         -1.08131236        0.000001
     13759         -1.08131236        0.000001
     13760         -1.08131236        0.000001
     13761         -1.08131236        0.000001
     13762         -1.08131236        0.000001
     13763         -1.08131236        0.000001
     13764         -1.08131236        0.000001
     13765         -1.08131236        0.000001
     13766         -1.08131236        0.000001
     13767         -1.08131236        0.000001
     13768         -1.08131236        0.000001
     13769         -1.08131236        0.000001
     13770         -1.08131236        0.000001
     13771         -1.08131236        0.000001
     13772         -1.08131236        0.000001
     13773         -1.08131236        0.000001
     13774         -1.08131236        0.000001
     13775         -1.08131236        0.000001
     13776         -1.08131236        0.000001
     13777         -1.08131236        0.000001
     13778         -1.08131236        0.000001
     13779         -1.08131236        0.000001
     13780         -1.08131236        0.000001
     13781         -1.08131236        0.000001
     13782         -1.08131236        0.000001
     13783         -1.08131236        0.000001
     13784         -1.08131236        0.000001
     13785         -1.08131236        0.000001
     13786         -1.08131236        0.000001
     13787         -1.08131236        0.000001
     13788         -1.08131236        0.000001
     13789         -1.08131236        0.000001
     13790         -1.08131236        0.000001
     13791         -1.08131236        0.000001
     13792         -1.08131236        0.000001
     13793         -1.08131236        0.000001
     13794         -1.08131236        0.000001
     13795         -1.08131236        0.000001
     13796         -1.08131236        0.000001
     13797         -1.08131236        0.000001
     13798         -1.08131236        0.000001
     13799         -1.08131236        0.000001
     13800         -1.08131236        0.000001
     13801         -1.08131236        0.000001
     13802         -1.08131236        0.000001
     13803         -1.08131236        0.000001
     13804         -1.08131236        0.000001
     13805         -1.08131236        0.000001
     13806         -1.08131236        0.000001
     13807         -1.08131236        0.000001
     13808         -1.08131236        0.000001
     13809         -1.08131236        0.000001
     13810         -1.08131236        0.000001
     13811         -1.08131236        0.000001
     13812         -1.08131236        0.000001
     13813         -1.08131236        0.000001
     13814         -1.08131236        0.000001
     13815         -1.08131236        0.000001
     13816         -1.08131236        0.000001
     13817         -1.08131236        0.000001
     13818         -1.08131236        0.000001
     13819         -1.08131236        0.000001
     13820         -1.08131236        0.000001
     13821         -1.08131236        0.000001
     13822         -1.08131236        0.000001
     13823         -1.08131236        0.000001
     13824         -1.08131236        0.000001
     13825         -1.08131236        0.000001
     13826         -1.08131236        0.000001
     13827         -1.08131236        0.000001
     13828         -1.08131236        0.000001
     13829         -1.08131236        0.000001
     13830         -1.08131236        0.000001
     13831         -1.08131236        0.000001
     13832         -1.08131236        0.000001
     13833         -1.08131236        0.000001
     13834         -1.08131236        0.000001
     13835         -1.08131236        0.000001
     13836         -1.08131236        0.000001
     13837         -1.08131236        0.000001
     13838         -1.08131236        0.000001
     13839         -1.08131236        0.000001
     13840         -1.08131236        0.000001
     13841         -1.08131236        0.000001
     13842         -1.08131236        0.000001
     13843         -1.08131236        0.000001
     13844         -1.08131236        0.000001
     13845         -1.08131236        0.000001
     13846         -1.08131236        0.000001
     13847         -1.08131236        0.000001
     13848         -1.08131236        0.000001
     13849         -1.08131236        0.000001
     13850         -1.08131236        0.000001
     13851         -1.08131236        0.000001
     13852         -1.08131236        0.000001
     13853         -1.08131236        0.000001
     13854         -1.08131236        0.000001
     13855         -1.08131236        0.000001
     13856         -1.08131236        0.000001
     13857         -1.08131236        0.000001
     13858         -1.08131236        0.000001
     13859         -1.08131236        0.000001
     13860         -1.08131236        0.000001
     13861         -1.08131236        0.000001
     13862         -1.08131236        0.000001
     13863         -1.08131236        0.000001
     13864         -1.08131236        0.000001
     13865         -1.08131236        0.000001
     13866         -1.08131236        0.000001
     13867         -1.08131236        0.000001
     13868         -1.08131236        0.000001
     13869         -1.08131236        0.000001
     13870         -1.08131236        0.000001
     13871         -1.08131236        0.000001
     13872         -1.08131236        0.000001
     13873         -1.08131236        0.000001
     13874         -1.08131236        0.000001
     13875         -1.08131236        0.000001
     13876         -1.08131236        0.000001
     13877         -1.08131236        0.000001
     13878         -1.08131236        0.000001
     13879         -1.08131236        0.000001
     13880         -1.08131236        0.000001
     13881         -1.08131236        0.000001
     13882         -1.08131236        0.000001
     13883         -1.08131236        0.000001
     13884         -1.08131236        0.000001

 Reached Convergence

 WFN1                     :
 --------------------------
 Total WFN1 energy  =          -1.0813123602
 1-Electron energy  =          -2.0239779105
 2-Electron energy  =           0.5342982223
 Correlation energy =          -0.0485265612
 DFT XC energy      =           0.0000000000
 Entropy energy     =           0.0000000000
 Nuclear energy     =           0.4568938891

 conventional Hartree-Fock:
 --------------------------
 Total SCF energy  =          -1.0606354224
 2-Electron energy =           0.5549751601

                WFN1 Final Natural orbital energies and occupations
                ---------------------------------------------------

              Alpha       Beta            Alpha       Beta  
            --------    --------        --------    --------
       1      0.0000      0.0000          0.9726      0.9726
       2      0.0000      0.0000          0.0213      0.0213
       3      0.0000      0.0000          0.0037      0.0037
       4      0.0000      0.0000          0.0024      0.0024

             WFN1 Final Correlation function energies and occupations
             --------------------------------------------------------

              Alpha       Beta            Alpha       Beta  
            --------    --------        --------    --------
       1      0.0000      0.0000          1.0000      1.0000
       2      0.0000      0.0000          0.0000      0.0000
       3      0.0000      0.0000          0.0000      0.0000
       4      0.0000      0.0000          0.0000      0.0000

                WFN1 Final alpha-alpha 2-matrix occupation numbers
                --------------------------------------------------


 global array: g_momo1[1:4,1:4],  handle: -990 

            1           2           3           4  
       ----------- ----------- ----------- -----------
   1       0.00000     0.00000     0.00000    -0.00000
   2       0.00000     0.00000     0.00000     0.00000
   3      -0.00000     0.00000     0.00000     0.00000
   4      -0.00000     0.00000     0.00000    -0.00000

                 WFN1 Final beta-beta 2-matrix occupation numbers
                 ------------------------------------------------


 global array: g_momo2[1:4,1:4],  handle: -989 

            1           2           3           4  
       ----------- ----------- ----------- -----------
   1       0.00000     0.00000     0.00000    -0.00000
   2       0.00000     0.00000     0.00000     0.00000
   3      -0.00000     0.00000     0.00000     0.00000
   4      -0.00000     0.00000     0.00000    -0.00000

                  WFN1 Final alpha Correlation Function Analysis
                  ----------------------------------------------


 global array: Ca[1:4,1:4],  handle: -981 

                     1                       2                       3                       4  
       ----------------------- ----------------------- ----------------------- -----------------------
   1       0.98477,   -0.05336    -0.14684,   -0.01179    -0.00883,    0.06466    -0.03740,   -0.00389
   2      -0.13868,   -0.04550    -0.89523,   -0.41774    -0.00603,   -0.04604    -0.01635,   -0.01848
   3      -0.02174,   -0.05695    -0.00509,   -0.01905    -0.70950,    0.43078     0.47648,   -0.28268
   4       0.01488,   -0.04621     0.03929,    0.02083    -0.26768,   -0.48268    -0.39859,   -0.72950

                   WFN1 Final beta Correlation Function Analysis
                   ---------------------------------------------


 global array: Cb[1:4,1:4],  handle: -980 

                     1                       2                       3                       4  
       ----------------------- ----------------------- ----------------------- -----------------------
   1       0.98477,   -0.05336    -0.14684,   -0.01179    -0.00883,    0.06466    -0.03740,   -0.00389
   2      -0.13868,   -0.04550    -0.89523,   -0.41774    -0.00603,   -0.04604    -0.01635,   -0.01848
   3      -0.02174,   -0.05695    -0.00509,   -0.01905    -0.70950,    0.43078     0.47648,   -0.28268
   4       0.01488,   -0.04621     0.03929,    0.02083    -0.26768,   -0.48268    -0.39859,   -0.72950

                     WFN1 Final Alpha Natural Orbital Analysis
                     -----------------------------------------

 Vector    1  Occ=9.726259D-01  E= 0.000000D+00
              MO Center=  0.0D+00,  0.0D+00,  1.3D-07, r^2= 1.0D+00
   Bfn.  Coefficient  Atom+Function         Bfn.  Coefficient  Atom+Function  
  ----- ------------  ---------------      ----- ------------  ---------------
     2     -0.360789  1 H  s                  4     -0.360790  2 H  s          
     1     -0.269882  1 H  s                  3     -0.269882  2 H  s          

 Vector    2  Occ=2.130198D-02  E= 0.000000D+00
              MO Center=  0.0D+00,  0.0D+00,  1.1D-08, r^2= 9.4D-01
   Bfn.  Coefficient  Atom+Function         Bfn.  Coefficient  Atom+Function  
  ----- ------------  ---------------      ----- ------------  ---------------
     1     -0.599268  1 H  s                  3      0.599269  2 H  s          
     2     -0.402347  1 H  s                  4      0.402346  2 H  s          

 Vector    3  Occ=3.715886D-03  E= 0.000000D+00
              MO Center=  0.0D+00,  0.0D+00,  1.1D-06, r^2= 1.6D+00
   Bfn.  Coefficient  Atom+Function         Bfn.  Coefficient  Atom+Function  
  ----- ------------  ---------------      ----- ------------  ---------------
     1     -0.906651  1 H  s                  3     -0.906652  2 H  s          
     2      0.700388  1 H  s                  4      0.700391  2 H  s          

 Vector    4  Occ=2.356227D-03  E= 0.000000D+00
              MO Center=  0.0D+00,  0.0D+00, -1.3D-06, r^2= 2.6D+00
   Bfn.  Coefficient  Atom+Function         Bfn.  Coefficient  Atom+Function  
  ----- ------------  ---------------      ----- ------------  ---------------
     2     -1.500420  1 H  s                  4      1.500418  2 H  s          
     1      0.752959  1 H  s                  3     -0.752958  2 H  s          


                     WFN1 Final Beta Natural Orbital Analysis
                     ----------------------------------------

 Vector    1  Occ=9.726259D-01  E= 0.000000D+00
              MO Center=  0.0D+00,  0.0D+00,  1.3D-07, r^2= 1.0D+00
   Bfn.  Coefficient  Atom+Function         Bfn.  Coefficient  Atom+Function  
  ----- ------------  ---------------      ----- ------------  ---------------
     2     -0.360789  1 H  s                  4     -0.360790  2 H  s          
     1     -0.269882  1 H  s                  3     -0.269882  2 H  s          

 Vector    2  Occ=2.130198D-02  E= 0.000000D+00
              MO Center=  0.0D+00,  0.0D+00,  1.1D-08, r^2= 9.4D-01
   Bfn.  Coefficient  Atom+Function         Bfn.  Coefficient  Atom+Function  
  ----- ------------  ---------------      ----- ------------  ---------------
     1     -0.599268  1 H  s                  3      0.599269  2 H  s          
     2     -0.402347  1 H  s                  4      0.402346  2 H  s          

 Vector    3  Occ=3.715886D-03  E= 0.000000D+00
              MO Center=  0.0D+00,  0.0D+00,  1.1D-06, r^2= 1.6D+00
   Bfn.  Coefficient  Atom+Function         Bfn.  Coefficient  Atom+Function  
  ----- ------------  ---------------      ----- ------------  ---------------
     1     -0.906651  1 H  s                  3     -0.906652  2 H  s          
     2      0.700388  1 H  s                  4      0.700391  2 H  s          

 Vector    4  Occ=2.356227D-03  E= 0.000000D+00
              MO Center=  0.0D+00,  0.0D+00, -1.3D-06, r^2= 2.6D+00
   Bfn.  Coefficient  Atom+Function         Bfn.  Coefficient  Atom+Function  
  ----- ------------  ---------------      ----- ------------  ---------------
     2     -1.500420  1 H  s                  4      1.500418  2 H  s          
     1      0.752959  1 H  s                  3     -0.752958  2 H  s          


 Task  times  cpu:      278.4s     wall:      426.3s
 Summary of allocated global arrays
-----------------------------------
  No active global arrays



                         GA Statistics for process    0
                         ------------------------------

       create   destroy   get      put      acc     scatter   gather  read&inc
calls:   44       44     1.50e+08 3.07e+05 4.09e+05    0        0       11     
number of processes/call 1.00e+00 1.00e+00 1.00e+00 0.00e+00 0.00e+00
bytes total:             1.93e+10 5.23e+07 6.54e+07 0.00e+00 0.00e+00 8.80e+01
bytes remote:            0.00e+00 0.00e+00 0.00e+00 0.00e+00 0.00e+00 0.00e+00
Max memory consumed for GA by this process: 10624 bytes
MA_summarize_allocated_blocks: starting scan ...
MA_summarize_allocated_blocks: scan completed: 0 heap blocks, 0 stack blocks
MA usage statistics:

	allocation statistics:
					      heap	     stack
					      ----	     -----
	current number of blocks	         0	         0
	maximum number of blocks	        19	        17
	current total bytes		         0	         0
	maximum total bytes		   3204344	  22508664
	maximum total K-bytes		      3205	     22509
	maximum total M-bytes		         4	        23


                                NWChem Input Module
                                -------------------





                                     CITATION
                                     --------
                Please cite the following reference when publishing
                           results obtained with NWChem:

                 M. Valiev, E.J. Bylaska, N. Govind, K. Kowalski,
              T.P. Straatsma, H.J.J. van Dam, D. Wang, J. Nieplocha,
                        E. Apra, T.L. Windus, W.A. de Jong
                 "NWChem: a comprehensive and scalable open-source
                  solution for large scale molecular simulations"
                      Comput. Phys. Commun. 181, 1477 (2010)
                           doi:10.1016/j.cpc.2010.04.018

                                      AUTHORS
                                      -------
          E. Apra, E. J. Bylaska, W. A. de Jong, N. Govind, K. Kowalski,
       T. P. Straatsma, M. Valiev, H. J. J. van Dam, D. Wang, T. L. Windus,
        J. Hammond, J. Autschbach, K. Bhaskaran-Nair, J. Brabec, K. Lopata,
    S. A. Fischer, S. Krishnamoorthy, M. Jacquelin, W. Ma, M. Klemm, O. Villa,
      Y. Chen, V. Anisimov, F. Aquino, S. Hirata, M. T. Hackler, V. Konjkov,
      T. Risthaus, M. Malagoli, A. Marenich, A. Otero-de-la-Roza, J. Mullin,
        P. Nichols, R. Peverati, J. Pittner, Y. Zhao, P.-D. Fan, A. Fonari,
       M. Williamson, R. J. Harrison, J. R. Rehr, M. Dupuis, D. Silverstein,
    D. M. A. Smith, J. Nieplocha, V. Tipparaju, M. Krishnan, B. E. Van Kuiken,
        A. Vazquez-Mayagoitia, L. Jensen, M. Swart, Q. Wu, T. Van Voorhis,
     A. A. Auer, M. Nooijen, L. D. Crosby, E. Brown, G. Cisneros, G. I. Fann,
   H. Fruchtl, J. Garza, K. Hirao, R. A. Kendall, J. A. Nichols, K. Tsemekhman,
    K. Wolinski, J. Anchell, D. E. Bernholdt, P. Borowski, T. Clark, D. Clerc,
   H. Dachsel, M. J. O. Deegan, K. Dyall, D. Elwood, E. Glendening, M. Gutowski,
   A. C. Hess, J. Jaffe, B. G. Johnson, J. Ju, R. Kobayashi, R. Kutteh, Z. Lin,
   R. Littlefield, X. Long, B. Meng, T. Nakajima, S. Niu, L. Pollack, M. Rosing,
   K. Glaesemann, G. Sandrone, M. Stave, H. Taylor, G. Thomas, J. H. van Lenthe,
                               A. T. Wong, Z. Zhang.

 Total times  cpu:      278.4s     wall:      426.3s
