 argument  1 = input-wf.nw



============================== echo of input deck ==============================
echo
start wfn1_dat
geometry units au noautoz
  H 0 0 -.74434600000000000000
  H 0 0  .74434600000000000000
  symmetry cs
end
basis
  H library 6-31g
end
set wfn1:input_vectors "atomic"
set wfn1:solver "monte-carlo"
set wfn1:print_error F
set wfn1:t_initial 0.1
#set wfn1:corr_expr "wfn1_mx"
set wfn1:corr_expr "wfn1c"
set wfn1:t_bath 0.0
set wfn1:maxit  20000
task wfn1 energy
================================================================================


                                         
                                         


              Northwest Computational Chemistry Package (NWChem) 6.8
              ------------------------------------------------------


                    Environmental Molecular Sciences Laboratory
                       Pacific Northwest National Laboratory
                                Richland, WA 99352

                              Copyright (c) 1994-2015
                       Pacific Northwest National Laboratory
                            Battelle Memorial Institute

             NWChem is an open-source computational chemistry package
                        distributed under the terms of the
                      Educational Community License (ECL) 2.0
             A copy of the license is included with this distribution
                              in the LICENSE.TXT file

                                  ACKNOWLEDGMENT
                                  --------------

            This software and its documentation were developed at the
            EMSL at Pacific Northwest National Laboratory, a multiprogram
            national laboratory, operated for the U.S. Department of Energy
            by Battelle under Contract Number DE-AC05-76RL01830. Support
            for this work was provided by the Department of Energy Office
            of Biological and Environmental Research, Office of Basic
            Energy Sciences, and the Office of Advanced Scientific Computing.


           Job information
           ---------------

    hostname        = erato
    program         = ../../../bin/LINUX64/nwchem
    date            = Mon Mar  1 01:02:04 2021

    compiled        = Sun_Feb_28_18:02:42_2021
    source          = /home/hvandam/nwchem-1-wfn1
    nwchem branch   = Development
    nwchem revision = nwchem_on_git-124-gad72d19fff205e319ffbbf2bca37a04ded6ad57b
    ga revision     = nwchem_on_git-124-gad72d19
    use scalapack   = F
    input           = input-wf.nw
    prefix          = wfn1_dat.
    data base       = ./wfn1_dat.db
    status          = startup
    nproc           =        1
    time left       =     -1s



           Memory information
           ------------------

    heap     =   13107200 doubles =    100.0 Mbytes
    stack    =   13107197 doubles =    100.0 Mbytes
    global   =   26214400 doubles =    200.0 Mbytes (distinct from heap & stack)
    total    =   52428797 doubles =    400.0 Mbytes
    verify   = yes
    hardfail = no 


           Directory information
           ---------------------

  0 permanent = .
  0 scratch   = .




                                NWChem Input Module
                                -------------------


 Turning off AUTOSYM since
 SYMMETRY directive was detected!



                             Geometry "geometry" -> ""
                             -------------------------

 Output coordinates in a.u. (scale by  1.000000000 to convert to a.u.)

  No.       Tag          Charge          X              Y              Z
 ---- ---------------- ---------- -------------- -------------- --------------
    1 H                    1.0000     0.00000000     0.00000000    -0.74434600
    2 H                    1.0000     0.00000000     0.00000000     0.74434600

      Atomic Mass 
      ----------- 

      H                  1.007825


 Effective nuclear repulsion energy (a.u.)       0.6717306199

            Nuclear Dipole moment (a.u.) 
            ----------------------------
        X                 Y               Z
 ---------------- ---------------- ----------------
     0.0000000000     0.0000000000     0.0000000000

      Symmetry information
      --------------------

 Group name             Cs        
 Group number              2
 Group order               2
 No. of unique centers     1

      Symmetry unique atoms

     1


            XYZ format geometry
            -------------------
     2
 geometry
 H                     0.00000000     0.00000000    -0.39389097
 H                     0.00000000     0.00000000     0.39389097

                      Basis "ao basis" -> "" (cartesian)
                      -----
  H (Hydrogen)
  ------------
            Exponent  Coefficients 
       -------------- ---------------------------------------------------------
  1 S  1.87311370E+01  0.033495
  1 S  2.82539370E+00  0.234727
  1 S  6.40121700E-01  0.813757

  2 S  1.61277800E-01  1.000000



 Summary of "ao basis" -> "" (cartesian)
 ------------------------------------------------------------------------------
       Tag                 Description            Shells   Functions and Types
 ---------------- ------------------------------  ------  ---------------------
 H                           6-31g                   2        2   2s



                                NWChem WFN1 Module
                                ------------------



          No. of electrons :     2
           Alpha electrons :     1
            Beta electrons :     1
          Charge           :     0
          Spin multiplicity:     1

 HvD: wfn1_inpdft
 HvD: nquad_task =                     1
 HvD: iangquad   =                     0
 HvD: gridtype   = user      
 HvD: leb        =  T
 HvD: radgrid    = murakn    
 HvD: trunc_neigh=  T
 HvD: lssw       =  T
 HvD: whichssw   = erf1    
 HvD: mxnrad     =                     0
 HvD: mxnang     =                     0
 HVD: wfn1: movecs_in  = atomic                                                                                                                                                                                                                                                          
 HVD: wfn1: movecs_out = ./wfn1_dat.movecs                                                                                                                                                                                                                                               

      Superposition of Atomic Density Guess
      -------------------------------------

 Sum of atomic energies:          -0.99646508

      Non-variational initial energy
      ------------------------------

 Total energy =      -0.842543
 1-e energy   =      -2.172643
 2-e energy   =       0.658369
 HOMO         =      -0.558054
 LUMO         =       0.161868

 iteration              energy           error
 ---------              ------           -----
         0         -1.12519346        0.080000
         1         -1.12602202        0.080000
         2         -1.12696701        0.080000
         3         -1.12731279        0.080000
         4         -1.12738163        0.080000
         5         -1.12778767        0.080000
         6         -1.12811887        0.080000
         7         -1.12859453        0.080000
         8         -1.12869112        0.080000
         9         -1.12889942        0.080000
        10         -1.12893673        0.080000
        11         -1.12897975        0.080000
        12         -1.12924633        0.080000
        13         -1.12949263        0.080000
        14         -1.12957455        0.080000
        15         -1.12976108        0.080000
        16         -1.12983495        0.080000
        17         -1.12996734        0.080000
        18         -1.12999196        0.080000
        19         -1.12999642        0.050397
        20         -1.13000307        0.050397
        21         -1.13001004        0.050397
        22         -1.13002385        0.050397
        23         -1.13002787        0.050397
        24         -1.13004000        0.050397
        25         -1.13004680        0.050397
        26         -1.13005511        0.025198
        27         -1.13005942        0.025198
        28         -1.13007011        0.025198
        29         -1.13007191        0.025198
        30         -1.13007639        0.025198
        31         -1.13007742        0.025198
        32         -1.13009366        0.020000
        33         -1.13009856        0.020000
        34         -1.13011206        0.020000
        35         -1.13012804        0.020000
        36         -1.13013382        0.020000
        37         -1.13014163        0.020000
        38         -1.13015145        0.020000
        39         -1.13016088        0.020000
        40         -1.13016365        0.015874
        41         -1.13016746        0.015874
        42         -1.13016803        0.015874
        43         -1.13017818        0.015874
        44         -1.13017921        0.015874
        45         -1.13018127        0.012599
        46         -1.13018350        0.012599
        47         -1.13019193        0.012599
        48         -1.13019731        0.012599
        49         -1.13019942        0.012599
        50         -1.13020447        0.012599
        51         -1.13020470        0.012599
        52         -1.13020743        0.012599
        53         -1.13020996        0.012599
        54         -1.13022181        0.012599
        55         -1.13022402        0.012599
        56         -1.13023122        0.012599
        57         -1.13023537        0.012599
        58         -1.13023774        0.012599
        59         -1.13023903        0.012599
        60         -1.13023965        0.012599
        61         -1.13025342        0.012599
        62         -1.13025628        0.012599
        63         -1.13025861        0.012599
        64         -1.13026018        0.012599
        65         -1.13026583        0.012599
        66         -1.13026854        0.012599
        67         -1.13027424        0.012599
        68         -1.13027545        0.012599
        69         -1.13027740        0.012599
        70         -1.13027828        0.012599
        71         -1.13028330        0.012599
        72         -1.13028472        0.012599
        73         -1.13028563        0.012599
        74         -1.13028943        0.012599
        75         -1.13029065        0.012599
        76         -1.13029402        0.012599
        77         -1.13029542        0.012599
        78         -1.13030004        0.012599
        79         -1.13030414        0.012599
        80         -1.13030728        0.012599
        81         -1.13031005        0.012599
        82         -1.13031275        0.012599
        83         -1.13031667        0.012599
        84         -1.13032006        0.012599
        85         -1.13032187        0.012599
        86         -1.13032890        0.012599
        87         -1.13032982        0.012599
        88         -1.13033053        0.012599
        89         -1.13033630        0.012599
        90         -1.13033960        0.012599
        91         -1.13034369        0.012599
        92         -1.13035032        0.012599
        93         -1.13035170        0.012599
        94         -1.13035977        0.012599
        95         -1.13036173        0.012599
        96         -1.13036384        0.012599
        97         -1.13037030        0.012599
        98         -1.13037460        0.012599
        99         -1.13037891        0.012599
       100         -1.13037961        0.012599
       101         -1.13038031        0.012599
       102         -1.13038783        0.010000
       103         -1.13039443        0.010000
       104         -1.13039629        0.010000
       105         -1.13039972        0.010000
       106         -1.13040228        0.010000
       107         -1.13040358        0.010000
       108         -1.13040382        0.010000
       109         -1.13040692        0.010000
       110         -1.13041335        0.010000
       111         -1.13041555        0.010000
       112         -1.13042002        0.010000
       113         -1.13042525        0.010000
       114         -1.13043025        0.010000
       115         -1.13043333        0.010000
       116         -1.13043830        0.010000
       117         -1.13044139        0.010000
       118         -1.13044811        0.010000
       119         -1.13044872        0.010000
       120         -1.13045044        0.010000
       121         -1.13045992        0.010000
       122         -1.13046070        0.010000
       123         -1.13046483        0.010000
       124         -1.13046571        0.010000
       125         -1.13046984        0.010000
       126         -1.13047271        0.010000
       127         -1.13047293        0.010000
       128         -1.13047666        0.010000
       129         -1.13048066        0.010000
       130         -1.13048115        0.010000
       131         -1.13048149        0.010000
       132         -1.13048326        0.010000
       133         -1.13048752        0.010000
       134         -1.13048932        0.010000
       135         -1.13049611        0.010000
       136         -1.13049843        0.010000
       137         -1.13049870        0.010000
       138         -1.13049897        0.010000
       139         -1.13050294        0.010000
       140         -1.13050371        0.010000
       141         -1.13051015        0.010000
       142         -1.13051236        0.010000
       143         -1.13051265        0.010000
       144         -1.13051429        0.010000
       145         -1.13051726        0.010000
       146         -1.13051976        0.010000
       147         -1.13052100        0.010000
       148         -1.13052908        0.010000
       149         -1.13053001        0.010000
       150         -1.13053035        0.010000
       151         -1.13053365        0.010000
       152         -1.13053641        0.010000
       153         -1.13053853        0.010000
       154         -1.13054007        0.010000
       155         -1.13054505        0.010000
       156         -1.13054825        0.010000
       157         -1.13055118        0.010000
       158         -1.13055348        0.010000
       159         -1.13055477        0.010000
       160         -1.13055806        0.010000
       161         -1.13056271        0.010000
       162         -1.13056834        0.010000
       163         -1.13056872        0.010000
       164         -1.13057137        0.010000
       165         -1.13057225        0.010000
       166         -1.13057345        0.010000
       167         -1.13057565        0.010000
       168         -1.13057626        0.010000
       169         -1.13057927        0.010000
       170         -1.13058614        0.010000
       171         -1.13058678        0.010000
       172         -1.13059425        0.010000
       173         -1.13059459        0.010000
       174         -1.13059551        0.010000
       175         -1.13059787        0.010000
       176         -1.13060486        0.010000
       177         -1.13060635        0.010000
       178         -1.13060833        0.010000
       179         -1.13060949        0.010000
       180         -1.13061006        0.010000
       181         -1.13061390        0.010000
       182         -1.13061518        0.010000
       183         -1.13062003        0.010000
       184         -1.13062057        0.010000
       185         -1.13062197        0.010000
       186         -1.13062662        0.010000
       187         -1.13062894        0.010000
       188         -1.13063170        0.010000
       189         -1.13063343        0.010000
       190         -1.13063344        0.010000
       191         -1.13063396        0.010000
       192         -1.13063692        0.010000
       193         -1.13064248        0.010000
       194         -1.13064694        0.010000
       195         -1.13064784        0.010000
       196         -1.13065437        0.010000
       197         -1.13065904        0.010000
       198         -1.13066597        0.010000
       199         -1.13066887        0.010000
       200         -1.13067220        0.010000
       201         -1.13067344        0.010000
       202         -1.13067633        0.010000
       203         -1.13068253        0.010000
       204         -1.13068274        0.010000
       205         -1.13068384        0.010000
       206         -1.13069304        0.010000
       207         -1.13069311        0.010000
       208         -1.13069749        0.010000
       209         -1.13070490        0.010000
       210         -1.13070747        0.010000
       211         -1.13070972        0.010000
       212         -1.13072047        0.010000
       213         -1.13072625        0.010000
       214         -1.13072811        0.010000
       215         -1.13073745        0.010000
       216         -1.13073911        0.010000
       217         -1.13074197        0.010000
       218         -1.13074226        0.010000
       219         -1.13074570        0.010000
       220         -1.13074621        0.010000
       221         -1.13075132        0.010000
       222         -1.13075396        0.010000
       223         -1.13075805        0.010000
       224         -1.13075973        0.010000
       225         -1.13076246        0.010000
       226         -1.13077015        0.010000
       227         -1.13077034        0.010000
       228         -1.13077074        0.010000
       229         -1.13077423        0.010000
       230         -1.13077691        0.010000
       231         -1.13077839        0.010000
       232         -1.13077871        0.010000
       233         -1.13078024        0.010000
       234         -1.13078054        0.010000
       235         -1.13078252        0.010000
       236         -1.13078354        0.010000
       237         -1.13079116        0.010000
       238         -1.13079696        0.010000
       239         -1.13079916        0.010000
       240         -1.13080118        0.010000
       241         -1.13080134        0.010000
       242         -1.13080662        0.010000
       243         -1.13080844        0.010000
       244         -1.13081300        0.010000
       245         -1.13081446        0.010000
       246         -1.13082078        0.010000
       247         -1.13082078        0.010000
       248         -1.13082487        0.010000
       249         -1.13082518        0.010000
       250         -1.13082618        0.010000
       251         -1.13083799        0.010000
       252         -1.13083990        0.010000
       253         -1.13084060        0.010000
       254         -1.13084480        0.010000
       255         -1.13084525        0.010000
       256         -1.13084809        0.007937
       257         -1.13084860        0.007937
       258         -1.13084967        0.007937
       259         -1.13085136        0.007937
       260         -1.13085204        0.007937
       261         -1.13086262        0.007937
       262         -1.13086498        0.007937
       263         -1.13086700        0.007937
       264         -1.13086723        0.007937
       265         -1.13086818        0.007937
       266         -1.13087153        0.007937
       267         -1.13087240        0.007937
       268         -1.13087254        0.007937
       269         -1.13087545        0.007937
       270         -1.13087645        0.007937
       271         -1.13088376        0.007937
       272         -1.13088941        0.007937
       273         -1.13089496        0.007937
       274         -1.13089747        0.007937
       275         -1.13090445        0.007937
       276         -1.13090711        0.007937
       277         -1.13090858        0.007937
       278         -1.13091064        0.007937
       279         -1.13091237        0.007937
       280         -1.13091598        0.007937
       281         -1.13091883        0.007937
       282         -1.13092281        0.007937
       283         -1.13092553        0.007937
       284         -1.13092738        0.007937
       285         -1.13093032        0.007937
       286         -1.13093349        0.007937
       287         -1.13093620        0.007937
       288         -1.13093753        0.007937
       289         -1.13094076        0.007937
       290         -1.13094219        0.007937
       291         -1.13094486        0.007937
       292         -1.13094857        0.007937
       293         -1.13095236        0.007937
       294         -1.13095315        0.007937
       295         -1.13095404        0.007937
       296         -1.13095548        0.007937
       297         -1.13096009        0.007937
       298         -1.13096164        0.007937
       299         -1.13096506        0.007937
       300         -1.13096616        0.007937
       301         -1.13096792        0.007937
       302         -1.13096838        0.007937
       303         -1.13097020        0.007937
       304         -1.13097143        0.007937
       305         -1.13097747        0.007937
       306         -1.13097911        0.007937
       307         -1.13097919        0.007937
       308         -1.13098039        0.007937
       309         -1.13098178        0.007937
       310         -1.13098733        0.007937
       311         -1.13098871        0.007937
       312         -1.13099336        0.007937
       313         -1.13099737        0.007937
       314         -1.13099942        0.007937
       315         -1.13100370        0.007937
       316         -1.13100519        0.007937
       317         -1.13100659        0.007937
       318         -1.13100802        0.007937
       319         -1.13101428        0.007937
       320         -1.13101624        0.007937
       321         -1.13101654        0.007937
       322         -1.13101832        0.007937
       323         -1.13102515        0.007937
       324         -1.13103304        0.007937
       325         -1.13103659        0.007937
       326         -1.13103920        0.007937
       327         -1.13104211        0.007937
       328         -1.13104589        0.007937
       329         -1.13104974        0.007937
       330         -1.13105269        0.007937
       331         -1.13105415        0.007937
       332         -1.13105829        0.007937
       333         -1.13106025        0.007937
       334         -1.13106128        0.007937
       335         -1.13106142        0.007937
       336         -1.13106688        0.007937
       337         -1.13106780        0.007937
       338         -1.13107211        0.007937
       339         -1.13107432        0.007937
       340         -1.13107602        0.007937
       341         -1.13107670        0.007937
       342         -1.13107686        0.007937
       343         -1.13107947        0.007937
       344         -1.13108104        0.007937
       345         -1.13108212        0.007937
       346         -1.13108550        0.007937
       347         -1.13108634        0.007937
       348         -1.13108865        0.007937
       349         -1.13109301        0.007937
       350         -1.13109722        0.007937
       351         -1.13110222        0.007937
       352         -1.13110466        0.007937
       353         -1.13111119        0.007937
       354         -1.13111168        0.007937
       355         -1.13111241        0.007937
       356         -1.13111845        0.007937
       357         -1.13111924        0.007937
       358         -1.13112050        0.007937
       359         -1.13112304        0.007937
       360         -1.13112795        0.007937
       361         -1.13113046        0.007937
       362         -1.13113576        0.007937
       363         -1.13113874        0.007937
       364         -1.13113878        0.007937
       365         -1.13114192        0.007937
       366         -1.13114227        0.007937
       367         -1.13114450        0.007937
       368         -1.13114633        0.007937
       369         -1.13114702        0.007937
       370         -1.13115177        0.007937
       371         -1.13115647        0.007937
       372         -1.13115926        0.007937
       373         -1.13116351        0.007937
       374         -1.13116378        0.007937
       375         -1.13116421        0.007937
       376         -1.13116525        0.007937
       377         -1.13116734        0.007937
       378         -1.13117087        0.007937
       379         -1.13117273        0.007937
       380         -1.13117307        0.007937
       381         -1.13117420        0.007937
       382         -1.13117553        0.007937
       383         -1.13117713        0.007937
       384         -1.13117825        0.007937
       385         -1.13117877        0.007937
       386         -1.13118169        0.007937
       387         -1.13118509        0.007937
       388         -1.13118631        0.007937
       389         -1.13119095        0.007937
       390         -1.13119517        0.007937
       391         -1.13119601        0.007937
       392         -1.13119737        0.007937
       393         -1.13120218        0.007937
       394         -1.13120641        0.007937
       395         -1.13120834        0.007937
       396         -1.13120841        0.007937
       397         -1.13121461        0.007937
       398         -1.13121913        0.007937
       399         -1.13122142        0.007937
       400         -1.13122352        0.007937
       401         -1.13122387        0.007937
       402         -1.13122471        0.007937
       403         -1.13122794        0.007937
       404         -1.13122971        0.007937
       405         -1.13123173        0.007937
       406         -1.13123199        0.007937
       407         -1.13123505        0.007937
       408         -1.13123643        0.007937
       409         -1.13123734        0.007937
       410         -1.13123780        0.007937
       411         -1.13124145        0.007937
       412         -1.13124574        0.007937
       413         -1.13124754        0.007937
       414         -1.13124887        0.007937
       415         -1.13125009        0.007937
       416         -1.13125376        0.007937
       417         -1.13125381        0.007937
       418         -1.13125785        0.007937
       419         -1.13125977        0.007937
       420         -1.13125987        0.007937
       421         -1.13126036        0.007937
       422         -1.13126344        0.007937
       423         -1.13126395        0.007937
       424         -1.13126700        0.007937
       425         -1.13126956        0.007937
       426         -1.13127116        0.007937
       427         -1.13127222        0.007937
       428         -1.13127778        0.007937
       429         -1.13128182        0.007937
       430         -1.13128314        0.007937
       431         -1.13128426        0.007937
       432         -1.13128878        0.007937
       433         -1.13129395        0.007937
       434         -1.13129608        0.007937
       435         -1.13129823        0.007937
       436         -1.13130167        0.007937
       437         -1.13130176        0.007937
       438         -1.13130625        0.007937
       439         -1.13130949        0.007937
       440         -1.13131299        0.007937
       441         -1.13131629        0.007937
       442         -1.13132051        0.007937
       443         -1.13132356        0.007937
       444         -1.13132567        0.007937
       445         -1.13132841        0.007937
       446         -1.13133014        0.007937
       447         -1.13133622        0.007937
       448         -1.13133826        0.007937
       449         -1.13134485        0.007937
       450         -1.13134957        0.007937
       451         -1.13135006        0.007937
       452         -1.13135042        0.007937
       453         -1.13135710        0.007937
       454         -1.13135727        0.007937
       455         -1.13135853        0.007937
       456         -1.13136344        0.007937
       457         -1.13136543        0.007937
       458         -1.13136738        0.007937
       459         -1.13136812        0.007937
       460         -1.13137213        0.007937
       461         -1.13137295        0.007937
       462         -1.13137624        0.007937
       463         -1.13137990        0.007937
       464         -1.13138052        0.007937
       465         -1.13138232        0.007937
       466         -1.13138328        0.007937
       467         -1.13138428        0.007937
       468         -1.13138718        0.007937
       469         -1.13138739        0.007937
       470         -1.13138901        0.007937
       471         -1.13139029        0.007937
       472         -1.13139109        0.007937
       473         -1.13139150        0.007937
       474         -1.13139260        0.007937
       475         -1.13139432        0.007937
       476         -1.13139451        0.007937
       477         -1.13139594        0.007937
       478         -1.13139632        0.007937
       479         -1.13139655        0.007937
       480         -1.13140328        0.007937
       481         -1.13140386        0.007937
       482         -1.13140486        0.007937
       483         -1.13140860        0.007937
       484         -1.13141018        0.007937
       485         -1.13141068        0.007937
       486         -1.13141157        0.007937
       487         -1.13141705        0.007937
       488         -1.13141883        0.007937
       489         -1.13141930        0.007937
       490         -1.13141975        0.007937
       491         -1.13142050        0.007937
       492         -1.13142209        0.007937
       493         -1.13142704        0.007937
       494         -1.13142787        0.007937
       495         -1.13142952        0.007937
       496         -1.13143099        0.007937
       497         -1.13143114        0.007937
       498         -1.13143275        0.007937
       499         -1.13143339        0.007937
       500         -1.13143721        0.007937
       501         -1.13144147        0.007937
       502         -1.13144244        0.007937
       503         -1.13144424        0.007937
       504         -1.13144528        0.007937
       505         -1.13144536        0.007937
       506         -1.13144953        0.007937
       507         -1.13145248        0.007937
       508         -1.13145485        0.007937
       509         -1.13145589        0.007937
       510         -1.13145834        0.007937
       511         -1.13145939        0.007937
       512         -1.13146005        0.007937
       513         -1.13146035        0.007937
       514         -1.13146296        0.007937
       515         -1.13146539        0.007937
       516         -1.13146780        0.007937
       517         -1.13146917        0.007937
       518         -1.13147062        0.007937
       519         -1.13147443        0.007937
       520         -1.13147509        0.007937
       521         -1.13147731        0.007937
       522         -1.13147925        0.007937
       523         -1.13148165        0.007937
       524         -1.13148245        0.007937
       525         -1.13148329        0.007937
       526         -1.13148735        0.007937
       527         -1.13149138        0.007937
       528         -1.13149176        0.007937
       529         -1.13149384        0.007937
       530         -1.13149723        0.007937
       531         -1.13149802        0.007937
       532         -1.13149903        0.007937
       533         -1.13150171        0.007937
       534         -1.13150175        0.007937
       535         -1.13150714        0.007937
       536         -1.13151122        0.007937
       537         -1.13151385        0.007937
       538         -1.13151893        0.007937
       539         -1.13152261        0.007937
       540         -1.13152325        0.007937
       541         -1.13152578        0.007937
       542         -1.13152923        0.007937
       543         -1.13153149        0.007937
       544         -1.13153386        0.007937
       545         -1.13153525        0.007937
       546         -1.13153869        0.007937
       547         -1.13154252        0.007937
       548         -1.13154744        0.007937
       549         -1.13154916        0.007937
       550         -1.13155157        0.007937
       551         -1.13155362        0.007937
       552         -1.13155508        0.007937
       553         -1.13155574        0.007937
       554         -1.13155671        0.007937
       555         -1.13155710        0.007937
       556         -1.13155861        0.007937
       557         -1.13156087        0.007937
       558         -1.13156165        0.007937
       559         -1.13156396        0.007937
       560         -1.13156547        0.007937
       561         -1.13156764        0.007937
       562         -1.13156894        0.007937
       563         -1.13157145        0.007937
       564         -1.13157587        0.007937
       565         -1.13157820        0.007937
       566         -1.13158015        0.007937
       567         -1.13158387        0.007937
       568         -1.13158492        0.007937
       569         -1.13158557        0.007937
       570         -1.13158634        0.007937
       571         -1.13158663        0.007937
       572         -1.13158767        0.007937
       573         -1.13158799        0.007937
       574         -1.13158844        0.007937
       575         -1.13158895        0.007937
       576         -1.13158989        0.007937
       577         -1.13159108        0.007937
       578         -1.13159566        0.007937
       579         -1.13159641        0.007937
       580         -1.13160080        0.007937
       581         -1.13160359        0.007937
       582         -1.13160579        0.007937
       583         -1.13160662        0.007937
       584         -1.13160779        0.007937
       585         -1.13160942        0.007937
       586         -1.13160996        0.007937
       587         -1.13161038        0.007937
       588         -1.13161158        0.007937
       589         -1.13161242        0.007937
       590         -1.13161612        0.007937
       591         -1.13161742        0.007937
       592         -1.13161948        0.007937
       593         -1.13162295        0.007937
       594         -1.13162321        0.007937
       595         -1.13162828        0.007937
       596         -1.13163012        0.007937
       597         -1.13163387        0.007937
       598         -1.13163498        0.007937
       599         -1.13163763        0.007937
       600         -1.13163958        0.007937
       601         -1.13164132        0.007937
       602         -1.13164247        0.007937
       603         -1.13164316        0.007937
       604         -1.13164434        0.007937
       605         -1.13164444        0.007937
       606         -1.13164501        0.007937
       607         -1.13164766        0.007937
       608         -1.13164941        0.007937
       609         -1.13165212        0.007937
       610         -1.13165516        0.007937
       611         -1.13165542        0.007937
       612         -1.13165631        0.007937
       613         -1.13166023        0.007937
       614         -1.13166067        0.007937
       615         -1.13166116        0.007937
       616         -1.13166451        0.007937
       617         -1.13166832        0.007937
       618         -1.13166955        0.007937
       619         -1.13167322        0.007937
       620         -1.13167377        0.007937
       621         -1.13167582        0.007937
       622         -1.13167781        0.007937
       623         -1.13168152        0.007937
       624         -1.13168243        0.007937
       625         -1.13168733        0.007937
       626         -1.13168747        0.007937
       627         -1.13169053        0.007937
       628         -1.13169671        0.007937
       629         -1.13169695        0.007937
       630         -1.13169969        0.007937
       631         -1.13170120        0.007937
       632         -1.13170222        0.007937
       633         -1.13170405        0.007937
       634         -1.13170602        0.007937
       635         -1.13170930        0.007937
       636         -1.13171307        0.007937
       637         -1.13171541        0.007937
       638         -1.13171734        0.007937
       639         -1.13171778        0.007937
       640         -1.13172053        0.007937
       641         -1.13172056        0.007937
       642         -1.13172218        0.007937
       643         -1.13172287        0.007937
       644         -1.13172572        0.007937
       645         -1.13172802        0.007937
       646         -1.13173170        0.007937
       647         -1.13173439        0.007937
       648         -1.13173681        0.007937
       649         -1.13173898        0.007937
       650         -1.13173925        0.007937
       651         -1.13173979        0.007937
       652         -1.13174018        0.007937
       653         -1.13174652        0.007937
       654         -1.13174705        0.007937
       655         -1.13174752        0.007937
       656         -1.13174885        0.007937
       657         -1.13175051        0.007937
       658         -1.13175168        0.007937
       659         -1.13175266        0.007937
       660         -1.13175525        0.007937
       661         -1.13175682        0.007937
       662         -1.13175795        0.007937
       663         -1.13176151        0.007937
       664         -1.13176328        0.007937
       665         -1.13176429        0.007937
       666         -1.13176582        0.007937
       667         -1.13176638        0.007937
       668         -1.13176640        0.007937
       669         -1.13176713        0.007937
       670         -1.13177155        0.007937
       671         -1.13177528        0.007937
       672         -1.13177691        0.007937
       673         -1.13177713        0.007937
       674         -1.13177819        0.007937
       675         -1.13177822        0.007937
       676         -1.13178154        0.007937
       677         -1.13178458        0.007937
       678         -1.13178490        0.007937
       679         -1.13178592        0.007937
       680         -1.13178903        0.007937
       681         -1.13178954        0.007937
       682         -1.13179063        0.007937
       683         -1.13179245        0.007937
       684         -1.13179636        0.007937
       685         -1.13179790        0.007937
       686         -1.13180101        0.007937
       687         -1.13180313        0.007937
       688         -1.13180681        0.007937
       689         -1.13180853        0.007937
       690         -1.13180939        0.007937
       691         -1.13181095        0.007937
       692         -1.13181510        0.007937
       693         -1.13181875        0.007937
       694         -1.13181911        0.007937
       695         -1.13181997        0.007937
       696         -1.13182077        0.007937
       697         -1.13182243        0.007937
       698         -1.13182478        0.007937
       699         -1.13182762        0.007937
       700         -1.13182890        0.007937
       701         -1.13182914        0.007937
       702         -1.13183164        0.007937
       703         -1.13183578        0.007937
       704         -1.13183579        0.007937
       705         -1.13183615        0.007937
       706         -1.13183655        0.007937
       707         -1.13183776        0.007937
       708         -1.13183823        0.007937
       709         -1.13184188        0.007937
       710         -1.13184229        0.007937
       711         -1.13184482        0.007937
       712         -1.13184531        0.007937
       713         -1.13184857        0.007937
       714         -1.13184932        0.007937
       715         -1.13185017        0.007937
       716         -1.13185400        0.007937
       717         -1.13185547        0.007937
       718         -1.13185971        0.007937
       719         -1.13186200        0.007937
       720         -1.13186358        0.007937
       721         -1.13186453        0.007937
       722         -1.13186504        0.007937
       723         -1.13186537        0.007937
       724         -1.13186663        0.007937
       725         -1.13186846        0.007937
       726         -1.13186991        0.007937
       727         -1.13187051        0.007937
       728         -1.13187509        0.007937
       729         -1.13187779        0.007937
       730         -1.13187920        0.007937
       731         -1.13188057        0.007937
       732         -1.13188708        0.007937
       733         -1.13188975        0.007937
       734         -1.13189252        0.007937
       735         -1.13189412        0.007937
       736         -1.13189562        0.007937
       737         -1.13189636        0.007937
       738         -1.13190026        0.007937
       739         -1.13190098        0.007937
       740         -1.13190115        0.007937
       741         -1.13190273        0.007937
       742         -1.13190465        0.007937
       743         -1.13190551        0.007937
       744         -1.13191056        0.007937
       745         -1.13191266        0.007937
       746         -1.13191330        0.007937
       747         -1.13191335        0.007937
       748         -1.13191633        0.007937
       749         -1.13191653        0.007937
       750         -1.13191764        0.007937
       751         -1.13192033        0.007937
       752         -1.13192484        0.007937
       753         -1.13192832        0.007937
       754         -1.13193062        0.007937
       755         -1.13193071        0.007937
       756         -1.13193143        0.007937
       757         -1.13193452        0.007937
       758         -1.13193478        0.007937
       759         -1.13193660        0.007937
       760         -1.13193931        0.007937
       761         -1.13193939        0.007937
       762         -1.13194341        0.007937
       763         -1.13194454        0.007937
       764         -1.13194526        0.007937
       765         -1.13194563        0.007937
       766         -1.13194662        0.007937
       767         -1.13194694        0.007937
       768         -1.13194920        0.007937
       769         -1.13194931        0.007937
       770         -1.13195263        0.007937
       771         -1.13195309        0.007937
       772         -1.13195473        0.007937
       773         -1.13195749        0.007937
       774         -1.13195756        0.007937
       775         -1.13196242        0.007937
       776         -1.13196396        0.007937
       777         -1.13196600        0.007937
       778         -1.13196717        0.007937
       779         -1.13196796        0.007937
       780         -1.13196954        0.007937
       781         -1.13197006        0.007937
       782         -1.13197274        0.007937
       783         -1.13197393        0.007937
       784         -1.13197481        0.007937
       785         -1.13197628        0.007937
       786         -1.13197662        0.007937
       787         -1.13197711        0.007937
       788         -1.13198305        0.007937
       789         -1.13198622        0.007937
       790         -1.13198666        0.007937
       791         -1.13198718        0.007937
       792         -1.13198777        0.007937
       793         -1.13198832        0.007937
       794         -1.13198892        0.007937
       795         -1.13198918        0.007937
       796         -1.13199106        0.007937
       797         -1.13199257        0.007937
       798         -1.13199476        0.007937
       799         -1.13199572        0.007937
       800         -1.13200014        0.007937
       801         -1.13200184        0.007937
       802         -1.13200475        0.007937
       803         -1.13200856        0.007937
       804         -1.13200912        0.007937
       805         -1.13200971        0.007937
       806         -1.13201030        0.007937
       807         -1.13201344        0.007937
       808         -1.13201483        0.007937
       809         -1.13201576        0.007937
       810         -1.13201755        0.007937
       811         -1.13201831        0.007937
       812         -1.13201933        0.007937
       813         -1.13202010        0.007937
       814         -1.13202210        0.007937
       815         -1.13202456        0.007937
       816         -1.13202638        0.007937
       817         -1.13202687        0.007937
       818         -1.13202833        0.007937
       819         -1.13202920        0.007937
       820         -1.13202978        0.007937
       821         -1.13203003        0.007937
       822         -1.13203372        0.007937
       823         -1.13203525        0.007937
       824         -1.13203779        0.007937
       825         -1.13203833        0.007937
       826         -1.13203909        0.007937
       827         -1.13203965        0.007937
       828         -1.13204138        0.007937
       829         -1.13204149        0.007937
       830         -1.13204168        0.007937
       831         -1.13204222        0.007937
       832         -1.13204225        0.007937
       833         -1.13204533        0.007937
       834         -1.13204600        0.007937
       835         -1.13204607        0.007937
       836         -1.13204627        0.007937
       837         -1.13204874        0.007937
       838         -1.13205130        0.007937
       839         -1.13205186        0.007937
       840         -1.13205315        0.007937
       841         -1.13205338        0.007937
       842         -1.13205572        0.007937
       843         -1.13205607        0.007937
       844         -1.13205671        0.007937
       845         -1.13206012        0.007937
       846         -1.13206049        0.007937
       847         -1.13206107        0.007937
       848         -1.13206146        0.007937
       849         -1.13206196        0.007937
       850         -1.13206338        0.007937
       851         -1.13206339        0.007937
       852         -1.13206576        0.007937
       853         -1.13206752        0.007937
       854         -1.13207065        0.007937
       855         -1.13207083        0.007937
       856         -1.13207115        0.006300
       857         -1.13207142        0.006300
       858         -1.13207188        0.006300
       859         -1.13207488        0.006300
       860         -1.13207666        0.006300
       861         -1.13207728        0.006300
       862         -1.13207757        0.006300
       863         -1.13208036        0.006300
       864         -1.13208095        0.006300
       865         -1.13208107        0.006300
       866         -1.13208231        0.006300
       867         -1.13208293        0.006300
       868         -1.13208363        0.006300
       869         -1.13208522        0.006300
       870         -1.13208646        0.006300
       871         -1.13208683        0.006300
       872         -1.13208685        0.006300
       873         -1.13208793        0.006300
       874         -1.13209014        0.006300
       875         -1.13209043        0.006300
       876         -1.13209060        0.006300
       877         -1.13209254        0.006300
       878         -1.13209653        0.006300
       879         -1.13209760        0.006300
       880         -1.13209825        0.006300
       881         -1.13209872        0.006300
       882         -1.13210094        0.006300
       883         -1.13210156        0.006300
       884         -1.13210251        0.006300
       885         -1.13210292        0.006300
       886         -1.13210475        0.006300
       887         -1.13210482        0.006300
       888         -1.13210576        0.006300
       889         -1.13210601        0.006300
       890         -1.13210602        0.006300
       891         -1.13210631        0.006300
       892         -1.13210988        0.006300
       893         -1.13211022        0.006300
       894         -1.13211263        0.006300
       895         -1.13211465        0.006300
       896         -1.13211582        0.006300
       897         -1.13211676        0.006300
       898         -1.13211716        0.006300
       899         -1.13211734        0.006300
       900         -1.13211768        0.006300
       901         -1.13211883        0.006300
       902         -1.13212027        0.006300
       903         -1.13212105        0.006300
       904         -1.13212127        0.006300
       905         -1.13212453        0.006300
       906         -1.13212595        0.006300
       907         -1.13212629        0.006300
       908         -1.13212644        0.006300
       909         -1.13212965        0.006300
       910         -1.13213047        0.006300
       911         -1.13213049        0.006300
       912         -1.13213212        0.006300
       913         -1.13213306        0.006300
       914         -1.13213314        0.006300
       915         -1.13213325        0.006300
       916         -1.13213436        0.006300
       917         -1.13213508        0.006300
       918         -1.13213617        0.006300
       919         -1.13213709        0.006300
       920         -1.13213749        0.006300
       921         -1.13214023        0.006300
       922         -1.13214038        0.006300
       923         -1.13214159        0.006300
       924         -1.13214297        0.006300
       925         -1.13214373        0.006300
       926         -1.13214549        0.006300
       927         -1.13214696        0.006300
       928         -1.13214806        0.006300
       929         -1.13214946        0.006300
       930         -1.13215063        0.006300
       931         -1.13215074        0.006300
       932         -1.13215164        0.006300
       933         -1.13215440        0.006300
       934         -1.13215671        0.006300
       935         -1.13215671        0.005000
       936         -1.13215679        0.005000
       937         -1.13215685        0.005000
       938         -1.13215695        0.005000
       939         -1.13215881        0.005000
       940         -1.13216068        0.005000
       941         -1.13216140        0.005000
       942         -1.13216197        0.005000
       943         -1.13216211        0.005000
       944         -1.13216279        0.005000
       945         -1.13216326        0.005000
       946         -1.13216339        0.005000
       947         -1.13216389        0.005000
       948         -1.13216419        0.005000
       949         -1.13216444        0.005000
       950         -1.13216578        0.005000
       951         -1.13216616        0.005000
       952         -1.13216751        0.005000
       953         -1.13216877        0.005000
       954         -1.13216906        0.005000
       955         -1.13216975        0.005000
       956         -1.13217142        0.005000
       957         -1.13217147        0.005000
       958         -1.13217275        0.005000
       959         -1.13217402        0.005000
       960         -1.13217473        0.005000
       961         -1.13217541        0.003969
       962         -1.13217572        0.003969
       963         -1.13217605        0.003969
       964         -1.13217610        0.003969
       965         -1.13217610        0.003969
       966         -1.13217625        0.003969
       967         -1.13217678        0.003969
       968         -1.13217705        0.003969
       969         -1.13217741        0.003969
       970         -1.13217787        0.003969
       971         -1.13217790        0.003969
       972         -1.13217837        0.003969
       973         -1.13217899        0.003969
       974         -1.13218045        0.003969
       975         -1.13218059        0.003969
       976         -1.13218154        0.003969
       977         -1.13218200        0.003969
       978         -1.13218279        0.003969
       979         -1.13218310        0.003969
       980         -1.13218377        0.003969
       981         -1.13218410        0.003969
       982         -1.13218440        0.003969
       983         -1.13218460        0.003969
       984         -1.13218481        0.003969
       985         -1.13218591        0.003969
       986         -1.13218675        0.003969
       987         -1.13218721        0.003969
       988         -1.13218827        0.003969
       989         -1.13218925        0.003969
       990         -1.13219015        0.003969
       991         -1.13219129        0.003969
       992         -1.13219135        0.003969
       993         -1.13219186        0.003969
       994         -1.13219189        0.003969
       995         -1.13219258        0.003969
       996         -1.13219266        0.003969
       997         -1.13219405        0.003969
       998         -1.13219425        0.003969
       999         -1.13219450        0.003969
      1000         -1.13219490        0.003969
      1001         -1.13219516        0.003969
      1002         -1.13219518        0.003969
      1003         -1.13219548        0.003969
      1004         -1.13219663        0.003969
      1005         -1.13219746        0.003969
      1006         -1.13219777        0.003969
      1007         -1.13219856        0.003969
      1008         -1.13219918        0.003969
      1009         -1.13219995        0.003969
      1010         -1.13220005        0.003969
      1011         -1.13220046        0.003969
      1012         -1.13220104        0.003969
      1013         -1.13220118        0.003969
      1014         -1.13220194        0.003969
      1015         -1.13220316        0.003969
      1016         -1.13220393        0.003969
      1017         -1.13220439        0.003969
      1018         -1.13220477        0.003969
      1019         -1.13220571        0.003969
      1020         -1.13220636        0.003969
      1021         -1.13220658        0.003969
      1022         -1.13220853        0.003969
      1023         -1.13220855        0.003969
      1024         -1.13220873        0.003969
      1025         -1.13220944        0.003969
      1026         -1.13220998        0.003969
      1027         -1.13221050        0.003969
      1028         -1.13221053        0.003969
      1029         -1.13221090        0.003969
      1030         -1.13221159        0.003969
      1031         -1.13221192        0.003969
      1032         -1.13221208        0.003969
      1033         -1.13221264        0.003969
      1034         -1.13221276        0.003969
      1035         -1.13221309        0.003969
      1036         -1.13221318        0.003969
      1037         -1.13221370        0.003969
      1038         -1.13221415        0.003969
      1039         -1.13221500        0.003969
      1040         -1.13221504        0.003969
      1041         -1.13221546        0.003969
      1042         -1.13221552        0.003969
      1043         -1.13221628        0.003969
      1044         -1.13221656        0.003969
      1045         -1.13221685        0.003969
      1046         -1.13221689        0.003969
      1047         -1.13221706        0.003969
      1048         -1.13221858        0.003969
      1049         -1.13221882        0.003969
      1050         -1.13222003        0.003969
      1051         -1.13222099        0.003969
      1052         -1.13222107        0.003969
      1053         -1.13222133        0.003969
      1054         -1.13222193        0.003969
      1055         -1.13222222        0.003969
      1056         -1.13222288        0.003969
      1057         -1.13222376        0.003969
      1058         -1.13222385        0.003969
      1059         -1.13222401        0.003969
      1060         -1.13222494        0.003969
      1061         -1.13222504        0.003969
      1062         -1.13222519        0.003969
      1063         -1.13222532        0.003969
      1064         -1.13222597        0.003969
      1065         -1.13222654        0.003969
      1066         -1.13222826        0.003969
      1067         -1.13222894        0.003969
      1068         -1.13222922        0.003969
      1069         -1.13223034        0.003969
      1070         -1.13223056        0.003969
      1071         -1.13223165        0.003969
      1072         -1.13223199        0.003150
      1073         -1.13223222        0.003150
      1074         -1.13223244        0.003150
      1075         -1.13223288        0.003150
      1076         -1.13223339        0.003150
      1077         -1.13223355        0.003150
      1078         -1.13223409        0.003150
      1079         -1.13223422        0.003150
      1080         -1.13223439        0.003150
      1081         -1.13223442        0.003150
      1082         -1.13223482        0.003150
      1083         -1.13223523        0.003150
      1084         -1.13223575        0.003150
      1085         -1.13223613        0.003150
      1086         -1.13223653        0.003150
      1087         -1.13223653        0.003150
      1088         -1.13223713        0.003150
      1089         -1.13223761        0.003150
      1090         -1.13223771        0.003150
      1091         -1.13223862        0.003150
      1092         -1.13223909        0.003150
      1093         -1.13223986        0.003150
      1094         -1.13223987        0.003150
      1095         -1.13224008        0.003150
      1096         -1.13224060        0.003150
      1097         -1.13224134        0.003150
      1098         -1.13224144        0.003150
      1099         -1.13224153        0.003150
      1100         -1.13224184        0.003150
      1101         -1.13224194        0.003150
      1102         -1.13224209        0.003150
      1103         -1.13224229        0.003150
      1104         -1.13224274        0.003150
      1105         -1.13224280        0.003150
      1106         -1.13224287        0.003150
      1107         -1.13224309        0.003150
      1108         -1.13224369        0.003150
      1109         -1.13224421        0.003150
      1110         -1.13224426        0.003150
      1111         -1.13224487        0.003150
      1112         -1.13224585        0.003150
      1113         -1.13224599        0.003150
      1114         -1.13224618        0.003150
      1115         -1.13224710        0.003150
      1116         -1.13224716        0.003150
      1117         -1.13224737        0.003150
      1118         -1.13224753        0.003150
      1119         -1.13224772        0.003150
      1120         -1.13224844        0.003150
      1121         -1.13224844        0.003150
      1122         -1.13224935        0.003150
      1123         -1.13224973        0.003150
      1124         -1.13225015        0.003150
      1125         -1.13225022        0.003150
      1126         -1.13225050        0.003150
      1127         -1.13225103        0.003150
      1128         -1.13225103        0.003150
      1129         -1.13225197        0.003150
      1130         -1.13225200        0.003150
      1131         -1.13225248        0.003150
      1132         -1.13225289        0.003150
      1133         -1.13225295        0.003150
      1134         -1.13225369        0.003150
      1135         -1.13225410        0.003150
      1136         -1.13225413        0.003150
      1137         -1.13225450        0.003150
      1138         -1.13225461        0.003150
      1139         -1.13225481        0.003150
      1140         -1.13225501        0.003150
      1141         -1.13225565        0.003150
      1142         -1.13225581        0.003150
      1143         -1.13225650        0.003150
      1144         -1.13225657        0.003150
      1145         -1.13225669        0.003150
      1146         -1.13225722        0.003150
      1147         -1.13225758        0.003150
      1148         -1.13225760        0.003150
      1149         -1.13225797        0.003150
      1150         -1.13225903        0.003150
      1151         -1.13225910        0.003150
      1152         -1.13225963        0.003150
      1153         -1.13225985        0.003150
      1154         -1.13226125        0.003150
      1155         -1.13226151        0.003150
      1156         -1.13226188        0.003150
      1157         -1.13226210        0.003150
      1158         -1.13226257        0.003150
      1159         -1.13226316        0.003150
      1160         -1.13226345        0.003150
      1161         -1.13226365        0.003150
      1162         -1.13226383        0.003150
      1163         -1.13226415        0.003150
      1164         -1.13226424        0.003150
      1165         -1.13226484        0.003150
      1166         -1.13226560        0.003150
      1167         -1.13226583        0.003150
      1168         -1.13226633        0.003150
      1169         -1.13226650        0.003150
      1170         -1.13226716        0.003150
      1171         -1.13226742        0.003150
      1172         -1.13226762        0.003150
      1173         -1.13226819        0.003150
      1174         -1.13226855        0.003150
      1175         -1.13226867        0.003150
      1176         -1.13226877        0.003150
      1177         -1.13226883        0.003150
      1178         -1.13226907        0.003150
      1179         -1.13226956        0.003150
      1180         -1.13226962        0.003150
      1181         -1.13227006        0.003150
      1182         -1.13227054        0.003150
      1183         -1.13227090        0.003150
      1184         -1.13227105        0.003150
      1185         -1.13227122        0.003150
      1186         -1.13227143        0.003150
      1187         -1.13227201        0.003150
      1188         -1.13227241        0.003150
      1189         -1.13227248        0.003150
      1190         -1.13227250        0.003150
      1191         -1.13227252        0.003150
      1192         -1.13227293        0.003150
      1193         -1.13227346        0.003150
      1194         -1.13227418        0.003150
      1195         -1.13227456        0.003150
      1196         -1.13227470        0.003150
      1197         -1.13227482        0.003150
      1198         -1.13227548        0.003150
      1199         -1.13227574        0.003150
      1200         -1.13227592        0.003150
      1201         -1.13227595        0.003150
      1202         -1.13227644        0.003150
      1203         -1.13227663        0.003150
      1204         -1.13227674        0.003150
      1205         -1.13227715        0.002500
      1206         -1.13227734        0.002500
      1207         -1.13227779        0.002500
      1208         -1.13227795        0.002500
      1209         -1.13227796        0.002500
      1210         -1.13227799        0.002500
      1211         -1.13227807        0.002500
      1212         -1.13227808        0.002500
      1213         -1.13227819        0.002500
      1214         -1.13227823        0.002500
      1215         -1.13227885        0.002500
      1216         -1.13227901        0.002500
      1217         -1.13227935        0.002500
      1218         -1.13227936        0.002500
      1219         -1.13227966        0.002500
      1220         -1.13227991        0.002500
      1221         -1.13228013        0.002500
      1222         -1.13228054        0.002500
      1223         -1.13228101        0.002500
      1224         -1.13228126        0.002500
      1225         -1.13228131        0.002500
      1226         -1.13228170        0.002500
      1227         -1.13228171        0.002500
      1228         -1.13228191        0.002500
      1229         -1.13228198        0.002500
      1230         -1.13228222        0.002500
      1231         -1.13228240        0.002500
      1232         -1.13228242        0.002500
      1233         -1.13228243        0.002500
      1234         -1.13228255        0.002500
      1235         -1.13228275        0.002500
      1236         -1.13228299        0.002500
      1237         -1.13228322        0.002500
      1238         -1.13228351        0.002500
      1239         -1.13228376        0.002500
      1240         -1.13228386        0.002500
      1241         -1.13228433        0.002500
      1242         -1.13228474        0.002500
      1243         -1.13228490        0.002500
      1244         -1.13228534        0.002500
      1245         -1.13228536        0.002500
      1246         -1.13228550        0.002500
      1247         -1.13228570        0.002500
      1248         -1.13228577        0.002500
      1249         -1.13228587        0.002500
      1250         -1.13228634        0.002500
      1251         -1.13228679        0.002500
      1252         -1.13228724        0.002500
      1253         -1.13228734        0.002500
      1254         -1.13228740        0.002500
      1255         -1.13228746        0.002500
      1256         -1.13228775        0.002500
      1257         -1.13228780        0.002500
      1258         -1.13228806        0.002500
      1259         -1.13228810        0.002500
      1260         -1.13228835        0.002500
      1261         -1.13228846        0.002500
      1262         -1.13228859        0.002500
      1263         -1.13228872        0.002500
      1264         -1.13228902        0.002500
      1265         -1.13228913        0.002500
      1266         -1.13228920        0.002500
      1267         -1.13228950        0.002500
      1268         -1.13228951        0.002500
      1269         -1.13228956        0.002500
      1270         -1.13228956        0.002500
      1271         -1.13228998        0.002500
      1272         -1.13229003        0.002500
      1273         -1.13229009        0.002500
      1274         -1.13229057        0.002500
      1275         -1.13229066        0.002500
      1276         -1.13229119        0.002500
      1277         -1.13229122        0.002500
      1278         -1.13229134        0.002500
      1279         -1.13229178        0.002500
      1280         -1.13229185        0.002500
      1281         -1.13229213        0.002500
      1282         -1.13229241        0.002500
      1283         -1.13229287        0.002500
      1284         -1.13229291        0.002500
      1285         -1.13229293        0.002500
      1286         -1.13229305        0.002500
      1287         -1.13229322        0.002500
      1288         -1.13229347        0.002500
      1289         -1.13229374        0.002500
      1290         -1.13229375        0.002500
      1291         -1.13229375        0.002500
      1292         -1.13229379        0.002500
      1293         -1.13229396        0.002500
      1294         -1.13229399        0.002500
      1295         -1.13229437        0.002500
      1296         -1.13229459        0.002500
      1297         -1.13229476        0.002500
      1298         -1.13229521        0.002500
      1299         -1.13229525        0.001984
      1300         -1.13229525        0.001984
      1301         -1.13229536        0.001984
      1302         -1.13229539        0.001984
      1303         -1.13229542        0.001984
      1304         -1.13229547        0.001984
      1305         -1.13229555        0.001984
      1306         -1.13229568        0.001984
      1307         -1.13229608        0.001984
      1308         -1.13229613        0.001984
      1309         -1.13229629        0.001984
      1310         -1.13229637        0.001984
      1311         -1.13229657        0.001984
      1312         -1.13229660        0.001984
      1313         -1.13229691        0.001984
      1314         -1.13229691        0.001984
      1315         -1.13229700        0.001984
      1316         -1.13229742        0.001984
      1317         -1.13229745        0.001984
      1318         -1.13229753        0.001984
      1319         -1.13229760        0.001984
      1320         -1.13229762        0.001984
      1321         -1.13229778        0.001984
      1322         -1.13229789        0.001984
      1323         -1.13229803        0.001984
      1324         -1.13229844        0.001984
      1325         -1.13229849        0.001984
      1326         -1.13229852        0.001984
      1327         -1.13229876        0.001984
      1328         -1.13229878        0.001984
      1329         -1.13229885        0.001575
      1330         -1.13229898        0.001575
      1331         -1.13229923        0.001575
      1332         -1.13229931        0.001575
      1333         -1.13229944        0.001575
      1334         -1.13229950        0.001575
      1335         -1.13229964        0.001575
      1336         -1.13229983        0.001575
      1337         -1.13229991        0.001575
      1338         -1.13230000        0.001575
      1339         -1.13230016        0.001575
      1340         -1.13230018        0.001575
      1341         -1.13230019        0.001575
      1342         -1.13230023        0.001575
      1343         -1.13230047        0.001575
      1344         -1.13230064        0.001575
      1345         -1.13230064        0.001575
      1346         -1.13230103        0.001575
      1347         -1.13230128        0.001575
      1348         -1.13230152        0.001575
      1349         -1.13230161        0.001575
      1350         -1.13230162        0.001575
      1351         -1.13230164        0.001575
      1352         -1.13230165        0.001575
      1353         -1.13230172        0.001575
      1354         -1.13230184        0.001575
      1355         -1.13230191        0.001575
      1356         -1.13230209        0.001575
      1357         -1.13230226        0.001575
      1358         -1.13230253        0.001575
      1359         -1.13230258        0.001575
      1360         -1.13230281        0.001575
      1361         -1.13230302        0.001575
      1362         -1.13230302        0.001575
      1363         -1.13230307        0.001575
      1364         -1.13230316        0.001575
      1365         -1.13230344        0.001575
      1366         -1.13230346        0.001575
      1367         -1.13230350        0.001575
      1368         -1.13230351        0.001575
      1369         -1.13230368        0.001575
      1370         -1.13230375        0.001575
      1371         -1.13230391        0.001575
      1372         -1.13230401        0.001575
      1373         -1.13230402        0.001575
      1374         -1.13230425        0.001575
      1375         -1.13230445        0.001575
      1376         -1.13230453        0.001575
      1377         -1.13230460        0.001575
      1378         -1.13230465        0.001575
      1379         -1.13230481        0.001575
      1380         -1.13230486        0.001575
      1381         -1.13230499        0.001575
      1382         -1.13230507        0.001575
      1383         -1.13230516        0.001575
      1384         -1.13230526        0.001575
      1385         -1.13230535        0.001575
      1386         -1.13230557        0.001575
      1387         -1.13230560        0.001575
      1388         -1.13230571        0.001575
      1389         -1.13230572        0.001575
      1390         -1.13230579        0.001575
      1391         -1.13230586        0.001575
      1392         -1.13230595        0.001575
      1393         -1.13230608        0.001575
      1394         -1.13230618        0.001575
      1395         -1.13230636        0.001575
      1396         -1.13230646        0.001575
      1397         -1.13230649        0.001575
      1398         -1.13230662        0.001575
      1399         -1.13230664        0.001575
      1400         -1.13230699        0.001575
      1401         -1.13230703        0.001575
      1402         -1.13230703        0.001575
      1403         -1.13230711        0.001575
      1404         -1.13230735        0.001575
      1405         -1.13230741        0.001575
      1406         -1.13230747        0.001575
      1407         -1.13230756        0.001575
      1408         -1.13230759        0.001575
      1409         -1.13230766        0.001575
      1410         -1.13230769        0.001575
      1411         -1.13230778        0.001575
      1412         -1.13230779        0.001575
      1413         -1.13230792        0.001575
      1414         -1.13230801        0.001575
      1415         -1.13230813        0.001575
      1416         -1.13230820        0.001575
      1417         -1.13230825        0.001575
      1418         -1.13230832        0.001575
      1419         -1.13230842        0.001575
      1420         -1.13230851        0.001575
      1421         -1.13230861        0.001575
      1422         -1.13230878        0.001575
      1423         -1.13230883        0.001575
      1424         -1.13230889        0.001575
      1425         -1.13230909        0.001575
      1426         -1.13230920        0.001575
      1427         -1.13230927        0.001575
      1428         -1.13230929        0.001575
      1429         -1.13230946        0.001575
      1430         -1.13230949        0.001575
      1431         -1.13230963        0.001575
      1432         -1.13230984        0.001575
      1433         -1.13230998        0.001575
      1434         -1.13231017        0.001575
      1435         -1.13231018        0.001575
      1436         -1.13231019        0.001575
      1437         -1.13231019        0.001575
      1438         -1.13231049        0.001575
      1439         -1.13231058        0.001575
      1440         -1.13231063        0.001575
      1441         -1.13231066        0.001575
      1442         -1.13231074        0.001575
      1443         -1.13231076        0.001575
      1444         -1.13231088        0.001575
      1445         -1.13231103        0.001575
      1446         -1.13231107        0.001575
      1447         -1.13231111        0.001575
      1448         -1.13231135        0.001575
      1449         -1.13231141        0.001575
      1450         -1.13231146        0.001575
      1451         -1.13231156        0.001575
      1452         -1.13231158        0.001575
      1453         -1.13231164        0.001575
      1454         -1.13231185        0.001575
      1455         -1.13231199        0.001575
      1456         -1.13231214        0.001575
      1457         -1.13231215        0.001575
      1458         -1.13231225        0.001575
      1459         -1.13231233        0.001575
      1460         -1.13231237        0.001575
      1461         -1.13231244        0.001575
      1462         -1.13231256        0.001575
      1463         -1.13231259        0.001575
      1464         -1.13231266        0.001575
      1465         -1.13231280        0.001575
      1466         -1.13231284        0.001575
      1467         -1.13231284        0.001575
      1468         -1.13231298        0.001575
      1469         -1.13231313        0.001575
      1470         -1.13231320        0.001575
      1471         -1.13231351        0.001575
      1472         -1.13231362        0.001575
      1473         -1.13231365        0.001575
      1474         -1.13231371        0.001575
      1475         -1.13231373        0.001575
      1476         -1.13231376        0.001575
      1477         -1.13231408        0.001575
      1478         -1.13231410        0.001575
      1479         -1.13231432        0.001575
      1480         -1.13231434        0.001575
      1481         -1.13231439        0.001575
      1482         -1.13231443        0.001575
      1483         -1.13231462        0.001575
      1484         -1.13231466        0.001575
      1485         -1.13231475        0.001575
      1486         -1.13231493        0.001575
      1487         -1.13231495        0.001575
      1488         -1.13231508        0.001575
      1489         -1.13231509        0.001575
      1490         -1.13231509        0.001575
      1491         -1.13231517        0.001575
      1492         -1.13231522        0.001575
      1493         -1.13231524        0.001575
      1494         -1.13231542        0.001575
      1495         -1.13231545        0.001575
      1496         -1.13231568        0.001575
      1497         -1.13231573        0.001575
      1498         -1.13231579        0.001575
      1499         -1.13231580        0.001575
      1500         -1.13231597        0.001575
      1501         -1.13231601        0.001575
      1502         -1.13231603        0.001575
      1503         -1.13231606        0.001575
      1504         -1.13231625        0.001575
      1505         -1.13231637        0.001575
      1506         -1.13231638        0.001575
      1507         -1.13231647        0.001575
      1508         -1.13231667        0.001575
      1509         -1.13231674        0.001575
      1510         -1.13231683        0.001575
      1511         -1.13231699        0.001575
      1512         -1.13231706        0.001575
      1513         -1.13231732        0.001575
      1514         -1.13231733        0.001575
      1515         -1.13231734        0.001575
      1516         -1.13231756        0.001575
      1517         -1.13231762        0.001575
      1518         -1.13231765        0.001575
      1519         -1.13231779        0.001575
      1520         -1.13231784        0.001575
      1521         -1.13231807        0.001575
      1522         -1.13231812        0.001575
      1523         -1.13231818        0.001575
      1524         -1.13231824        0.001575
      1525         -1.13231847        0.001575
      1526         -1.13231869        0.001575
      1527         -1.13231871        0.001575
      1528         -1.13231877        0.001575
      1529         -1.13231882        0.001575
      1530         -1.13231889        0.001575
      1531         -1.13231905        0.001575
      1532         -1.13231908        0.001575
      1533         -1.13231912        0.001575
      1534         -1.13231912        0.001575
      1535         -1.13231927        0.001575
      1536         -1.13231930        0.001575
      1537         -1.13231934        0.001575
      1538         -1.13231944        0.001575
      1539         -1.13231955        0.001575
      1540         -1.13231957        0.001575
      1541         -1.13231966        0.001575
      1542         -1.13231976        0.001250
      1543         -1.13231976        0.001250
      1544         -1.13231984        0.001250
      1545         -1.13231996        0.001250
      1546         -1.13231998        0.001250
      1547         -1.13232008        0.001250
      1548         -1.13232012        0.001250
      1549         -1.13232019        0.001250
      1550         -1.13232019        0.001250
      1551         -1.13232029        0.001250
      1552         -1.13232033        0.001250
[...]
      6768         -1.13234021        0.000002
      6769         -1.13234021        0.000002
      6770         -1.13234021        0.000002
      6771         -1.13234021        0.000002
      6772         -1.13234021        0.000002
      6773         -1.13234021        0.000002
      6774         -1.13234021        0.000002
      6775         -1.13234021        0.000002
      6776         -1.13234021        0.000002
      6777         -1.13234021        0.000002
      6778         -1.13234021        0.000002
      6779         -1.13234021        0.000002
      6780         -1.13234021        0.000002
      6781         -1.13234021        0.000002
      6782         -1.13234021        0.000002
      6783         -1.13234021        0.000002
      6784         -1.13234021        0.000002
      6785         -1.13234021        0.000002
      6786         -1.13234021        0.000002
      6787         -1.13234021        0.000002
      6788         -1.13234021        0.000002
      6789         -1.13234021        0.000002
      6790         -1.13234021        0.000002
      6791         -1.13234021        0.000002
      6792         -1.13234021        0.000002
      6793         -1.13234021        0.000002
      6794         -1.13234021        0.000002
      6795         -1.13234021        0.000002
      6796         -1.13234021        0.000002
      6797         -1.13234021        0.000002
      6798         -1.13234021        0.000002
      6799         -1.13234021        0.000002
      6800         -1.13234021        0.000002
      6801         -1.13234021        0.000002
      6802         -1.13234021        0.000002
      6803         -1.13234021        0.000002
      6804         -1.13234021        0.000002
      6805         -1.13234021        0.000002
      6806         -1.13234021        0.000002
      6807         -1.13234021        0.000002
      6808         -1.13234021        0.000002
      6809         -1.13234021        0.000002
      6810         -1.13234021        0.000002
      6811         -1.13234021        0.000002
      6812         -1.13234021        0.000002
      6813         -1.13234021        0.000002
      6814         -1.13234021        0.000002
      6815         -1.13234021        0.000002
      6816         -1.13234021        0.000002
      6817         -1.13234021        0.000002
      6818         -1.13234021        0.000002
      6819         -1.13234021        0.000002
      6820         -1.13234021        0.000002
      6821         -1.13234021        0.000002
      6822         -1.13234021        0.000002
      6823         -1.13234021        0.000002
      6824         -1.13234021        0.000002
      6825         -1.13234021        0.000002
      6826         -1.13234021        0.000002
      6827         -1.13234021        0.000002
      6828         -1.13234021        0.000002
      6829         -1.13234021        0.000002
      6830         -1.13234021        0.000002
      6831         -1.13234021        0.000002
      6832         -1.13234021        0.000002
      6833         -1.13234021        0.000002
      6834         -1.13234021        0.000002
      6835         -1.13234021        0.000002
      6836         -1.13234021        0.000002
      6837         -1.13234021        0.000002
      6838         -1.13234021        0.000002
      6839         -1.13234021        0.000002
      6840         -1.13234021        0.000002
      6841         -1.13234021        0.000002
      6842         -1.13234021        0.000002
      6843         -1.13234021        0.000002
      6844         -1.13234021        0.000002
      6845         -1.13234021        0.000002
      6846         -1.13234021        0.000002
      6847         -1.13234021        0.000002
      6848         -1.13234021        0.000002
      6849         -1.13234021        0.000002
      6850         -1.13234021        0.000002
      6851         -1.13234021        0.000002
      6852         -1.13234021        0.000002
      6853         -1.13234021        0.000002
      6854         -1.13234021        0.000002
      6855         -1.13234021        0.000002
      6856         -1.13234021        0.000002
      6857         -1.13234021        0.000002
      6858         -1.13234021        0.000002
      6859         -1.13234021        0.000001
      6860         -1.13234021        0.000001
      6861         -1.13234021        0.000001
      6862         -1.13234021        0.000001
      6863         -1.13234021        0.000001
      6864         -1.13234021        0.000001
      6865         -1.13234021        0.000001
      6866         -1.13234021        0.000001
      6867         -1.13234021        0.000001
      6868         -1.13234021        0.000001
      6869         -1.13234021        0.000001
      6870         -1.13234021        0.000001
      6871         -1.13234021        0.000001
      6872         -1.13234021        0.000001
      6873         -1.13234021        0.000001
      6874         -1.13234021        0.000001
      6875         -1.13234021        0.000001
      6876         -1.13234021        0.000001
      6877         -1.13234021        0.000001
      6878         -1.13234021        0.000001
      6879         -1.13234021        0.000001
      6880         -1.13234021        0.000001
      6881         -1.13234021        0.000001
      6882         -1.13234021        0.000001
      6883         -1.13234021        0.000001
      6884         -1.13234021        0.000001
      6885         -1.13234021        0.000001
      6886         -1.13234021        0.000001
      6887         -1.13234021        0.000001
      6888         -1.13234021        0.000001
      6889         -1.13234021        0.000001
      6890         -1.13234021        0.000001
      6891         -1.13234021        0.000001
      6892         -1.13234021        0.000001
      6893         -1.13234021        0.000001
      6894         -1.13234021        0.000001
      6895         -1.13234021        0.000001
      6896         -1.13234021        0.000001
      6897         -1.13234021        0.000001
      6898         -1.13234021        0.000001
      6899         -1.13234021        0.000001
      6900         -1.13234021        0.000001
      6901         -1.13234021        0.000001
      6902         -1.13234021        0.000001
      6903         -1.13234021        0.000001
      6904         -1.13234021        0.000001
      6905         -1.13234021        0.000001
      6906         -1.13234021        0.000001
      6907         -1.13234021        0.000001
      6908         -1.13234021        0.000001
      6909         -1.13234021        0.000001
      6910         -1.13234021        0.000001
      6911         -1.13234021        0.000001
      6912         -1.13234021        0.000001
      6913         -1.13234021        0.000001
      6914         -1.13234021        0.000001
      6915         -1.13234021        0.000001
      6916         -1.13234021        0.000001
      6917         -1.13234021        0.000001
      6918         -1.13234021        0.000001
      6919         -1.13234021        0.000001
      6920         -1.13234021        0.000001
      6921         -1.13234021        0.000001
      6922         -1.13234021        0.000001
      6923         -1.13234021        0.000001
      6924         -1.13234021        0.000001
      6925         -1.13234021        0.000001
      6926         -1.13234021        0.000001
      6927         -1.13234021        0.000001
      6928         -1.13234021        0.000001
      6929         -1.13234021        0.000001
      6930         -1.13234021        0.000001
      6931         -1.13234021        0.000001
      6932         -1.13234021        0.000001
      6933         -1.13234021        0.000001
      6934         -1.13234021        0.000001
      6935         -1.13234021        0.000001
      6936         -1.13234021        0.000001
      6937         -1.13234021        0.000001
      6938         -1.13234021        0.000001
      6939         -1.13234021        0.000001
      6940         -1.13234021        0.000001
      6941         -1.13234021        0.000001
      6942         -1.13234021        0.000001
      6943         -1.13234021        0.000001
      6944         -1.13234021        0.000001
      6945         -1.13234021        0.000001
      6946         -1.13234021        0.000001
      6947         -1.13234021        0.000001
      6948         -1.13234021        0.000001
      6949         -1.13234021        0.000001

 Reached Convergence

 WFN1                     :
 --------------------------
 Total WFN1 energy  =          -1.1323402144
 1-Electron energy  =          -2.4177158513
 2-Electron energy  =           0.6333625631
 Correlation energy =          -0.0197175461
 DFT XC energy      =           0.0000000000
 Entropy energy     =           0.0000000000
 Nuclear energy     =           0.6717306199

 conventional Hartree-Fock:
 --------------------------
 Total SCF energy  =          -1.1268952513
 2-Electron energy =           0.6388075262

                WFN1 Final Natural orbital energies and occupations
                ---------------------------------------------------

              Alpha       Beta            Alpha       Beta  
            --------    --------        --------    --------
       1      0.0000      0.0000          0.9938      0.9938
       2      0.0000      0.0000          0.0020      0.0020
       3      0.0000      0.0000          0.0012      0.0012
       4      0.0000      0.0000          0.0030      0.0030

             WFN1 Final Correlation function energies and occupations
             --------------------------------------------------------

              Alpha       Beta            Alpha       Beta  
            --------    --------        --------    --------
       1      0.0000      0.0000          1.0000      1.0000
       2      0.0000      0.0000          0.0000      0.0000
       3      0.0000      0.0000          0.0000      0.0000
       4      0.0000      0.0000          0.0000      0.0000

                WFN1 Final alpha-alpha 2-matrix occupation numbers
                --------------------------------------------------


 global array: g_momo1[1:4,1:4],  handle: -990 

            1           2           3           4  
       ----------- ----------- ----------- -----------
   1       0.00000     0.00000    -0.00000     0.00000
   2       0.00000     0.00000    -0.00000     0.00000
   3       0.00000     0.00000    -0.00000     0.00000
   4       0.00000     0.00000    -0.00000    -0.00000

                 WFN1 Final beta-beta 2-matrix occupation numbers
                 ------------------------------------------------


 global array: g_momo2[1:4,1:4],  handle: -989 

            1           2           3           4  
       ----------- ----------- ----------- -----------
   1       0.00000     0.00000    -0.00000     0.00000
   2       0.00000     0.00000    -0.00000     0.00000
   3       0.00000     0.00000    -0.00000     0.00000
   4       0.00000     0.00000    -0.00000    -0.00000

                  WFN1 Final alpha Correlation Function Analysis
                  ----------------------------------------------


 global array: Ca[1:4,1:4],  handle: -977 

                     1                       2                       3                       4  
       ----------------------- ----------------------- ----------------------- -----------------------
   1       0.75664,    0.64911    -0.03702,    0.02830    -0.01734,   -0.02894     0.04385,   -0.03037
   2       0.01737,   -0.04145    -0.83265,   -0.55015     0.02426,    0.01582    -0.02780,   -0.01989
   3       0.01042,    0.03240     0.00274,    0.03099     0.13128,    0.98821    -0.01588,   -0.06182
   4       0.03340,   -0.04313    -0.02023,   -0.02190     0.03404,    0.05535     0.63854,    0.76432

                   WFN1 Final beta Correlation Function Analysis
                   ---------------------------------------------


 global array: Cb[1:4,1:4],  handle: -976 

                     1                       2                       3                       4  
       ----------------------- ----------------------- ----------------------- -----------------------
   1       0.75664,    0.64911    -0.03702,    0.02830    -0.01734,   -0.02894     0.04385,   -0.03037
   2       0.01737,   -0.04145    -0.83265,   -0.55015     0.02426,    0.01582    -0.02780,   -0.01989
   3       0.01042,    0.03240     0.00274,    0.03099     0.13128,    0.98821    -0.01588,   -0.06182
   4       0.03340,   -0.04313    -0.02023,   -0.02190     0.03404,    0.05535     0.63854,    0.76432

                     WFN1 Final Alpha Natural Orbital Analysis
                     -----------------------------------------

 Vector    1  Occ=9.938460D-01  E= 0.000000D+00
              MO Center=  0.0D+00,  0.0D+00, -7.4D-07, r^2= 7.6D-01
   Bfn.  Coefficient  Atom+Function         Bfn.  Coefficient  Atom+Function  
  ----- ------------  ---------------      ----- ------------  ---------------
     1      0.320776  1 H  s                  3      0.320776  2 H  s          
     2      0.282251  1 H  s                  4      0.282248  2 H  s          

 Vector    2  Occ=2.019921D-03  E= 0.000000D+00
              MO Center=  0.0D+00,  0.0D+00, -1.0D-04, r^2= 2.6D+00
   Bfn.  Coefficient  Atom+Function         Bfn.  Coefficient  Atom+Function  
  ----- ------------  ---------------      ----- ------------  ---------------
     2      2.023460  1 H  s                  4     -2.023357  2 H  s          
     1     -0.375246  1 H  s                  3      0.375128  2 H  s          

 Vector    3  Occ=1.158574D-03  E= 0.000000D+00
              MO Center=  0.0D+00,  0.0D+00,  1.0D-04, r^2= 1.6D+00
   Bfn.  Coefficient  Atom+Function         Bfn.  Coefficient  Atom+Function  
  ----- ------------  ---------------      ----- ------------  ---------------
     1      0.786555  1 H  s                  3      0.786592  2 H  s          
     2     -0.689573  1 H  s                  4     -0.689868  2 H  s          

 Vector    4  Occ=2.975480D-03  E= 0.000000D+00
              MO Center=  0.0D+00,  0.0D+00,  4.6D-06, r^2= 4.8D-01
   Bfn.  Coefficient  Atom+Function         Bfn.  Coefficient  Atom+Function  
  ----- ------------  ---------------      ----- ------------  ---------------
     1      1.028007  1 H  s                  3     -1.028022  2 H  s          
     2     -0.445828  1 H  s                  4      0.445841  2 H  s          


                     WFN1 Final Beta Natural Orbital Analysis
                     ----------------------------------------

 Vector    1  Occ=9.938460D-01  E= 0.000000D+00
              MO Center=  0.0D+00,  0.0D+00, -7.4D-07, r^2= 7.6D-01
   Bfn.  Coefficient  Atom+Function         Bfn.  Coefficient  Atom+Function  
  ----- ------------  ---------------      ----- ------------  ---------------
     1      0.320776  1 H  s                  3      0.320776  2 H  s          
     2      0.282251  1 H  s                  4      0.282248  2 H  s          

 Vector    2  Occ=2.019921D-03  E= 0.000000D+00
              MO Center=  0.0D+00,  0.0D+00, -1.0D-04, r^2= 2.6D+00
   Bfn.  Coefficient  Atom+Function         Bfn.  Coefficient  Atom+Function  
  ----- ------------  ---------------      ----- ------------  ---------------
     2      2.023460  1 H  s                  4     -2.023357  2 H  s          
     1     -0.375246  1 H  s                  3      0.375128  2 H  s          

 Vector    3  Occ=1.158574D-03  E= 0.000000D+00
              MO Center=  0.0D+00,  0.0D+00,  1.0D-04, r^2= 1.6D+00
   Bfn.  Coefficient  Atom+Function         Bfn.  Coefficient  Atom+Function  
  ----- ------------  ---------------      ----- ------------  ---------------
     1      0.786555  1 H  s                  3      0.786592  2 H  s          
     2     -0.689573  1 H  s                  4     -0.689868  2 H  s          

 Vector    4  Occ=2.975480D-03  E= 0.000000D+00
              MO Center=  0.0D+00,  0.0D+00,  4.6D-06, r^2= 4.8D-01
   Bfn.  Coefficient  Atom+Function         Bfn.  Coefficient  Atom+Function  
  ----- ------------  ---------------      ----- ------------  ---------------
     1      1.028007  1 H  s                  3     -1.028022  2 H  s          
     2     -0.445828  1 H  s                  4      0.445841  2 H  s          


 Task  times  cpu:      119.2s     wall:      158.8s
 Summary of allocated global arrays
-----------------------------------
  No active global arrays



                         GA Statistics for process    0
                         ------------------------------

       create   destroy   get      put      acc     scatter   gather  read&inc
calls:   44       44     8.64e+07 1.77e+05 2.36e+05    0        0       11     
number of processes/call 1.00e+00 1.00e+00 1.00e+00 0.00e+00 0.00e+00
bytes total:             1.11e+10 3.02e+07 3.77e+07 0.00e+00 0.00e+00 8.80e+01
bytes remote:            0.00e+00 0.00e+00 0.00e+00 0.00e+00 0.00e+00 0.00e+00
Max memory consumed for GA by this process: 10624 bytes
MA_summarize_allocated_blocks: starting scan ...
MA_summarize_allocated_blocks: scan completed: 0 heap blocks, 0 stack blocks
MA usage statistics:

	allocation statistics:
					      heap	     stack
					      ----	     -----
	current number of blocks	         0	         0
	maximum number of blocks	        19	        17
	current total bytes		         0	         0
	maximum total bytes		   3204328	  22508616
	maximum total K-bytes		      3205	     22509
	maximum total M-bytes		         4	        23


                                NWChem Input Module
                                -------------------





                                     CITATION
                                     --------
                Please cite the following reference when publishing
                           results obtained with NWChem:

                 M. Valiev, E.J. Bylaska, N. Govind, K. Kowalski,
              T.P. Straatsma, H.J.J. van Dam, D. Wang, J. Nieplocha,
                        E. Apra, T.L. Windus, W.A. de Jong
                 "NWChem: a comprehensive and scalable open-source
                  solution for large scale molecular simulations"
                      Comput. Phys. Commun. 181, 1477 (2010)
                           doi:10.1016/j.cpc.2010.04.018

                                      AUTHORS
                                      -------
          E. Apra, E. J. Bylaska, W. A. de Jong, N. Govind, K. Kowalski,
       T. P. Straatsma, M. Valiev, H. J. J. van Dam, D. Wang, T. L. Windus,
        J. Hammond, J. Autschbach, K. Bhaskaran-Nair, J. Brabec, K. Lopata,
    S. A. Fischer, S. Krishnamoorthy, M. Jacquelin, W. Ma, M. Klemm, O. Villa,
      Y. Chen, V. Anisimov, F. Aquino, S. Hirata, M. T. Hackler, V. Konjkov,
      T. Risthaus, M. Malagoli, A. Marenich, A. Otero-de-la-Roza, J. Mullin,
        P. Nichols, R. Peverati, J. Pittner, Y. Zhao, P.-D. Fan, A. Fonari,
       M. Williamson, R. J. Harrison, J. R. Rehr, M. Dupuis, D. Silverstein,
    D. M. A. Smith, J. Nieplocha, V. Tipparaju, M. Krishnan, B. E. Van Kuiken,
        A. Vazquez-Mayagoitia, L. Jensen, M. Swart, Q. Wu, T. Van Voorhis,
     A. A. Auer, M. Nooijen, L. D. Crosby, E. Brown, G. Cisneros, G. I. Fann,
   H. Fruchtl, J. Garza, K. Hirao, R. A. Kendall, J. A. Nichols, K. Tsemekhman,
    K. Wolinski, J. Anchell, D. E. Bernholdt, P. Borowski, T. Clark, D. Clerc,
   H. Dachsel, M. J. O. Deegan, K. Dyall, D. Elwood, E. Glendening, M. Gutowski,
   A. C. Hess, J. Jaffe, B. G. Johnson, J. Ju, R. Kobayashi, R. Kutteh, Z. Lin,
   R. Littlefield, X. Long, B. Meng, T. Nakajima, S. Niu, L. Pollack, M. Rosing,
   K. Glaesemann, G. Sandrone, M. Stave, H. Taylor, G. Thomas, J. H. van Lenthe,
                               A. T. Wong, Z. Zhang.

 Total times  cpu:      119.2s     wall:      158.8s
