 argument  1 = input-wf.nw



============================== echo of input deck ==============================
echo
start wfn1_dat
geometry units au noautoz
  H 0 0 -3.14434600000000000000
  H 0 0  3.14434600000000000000
  symmetry cs
end
basis
  H library 6-31g
end
set wfn1:input_vectors "atomic"
set wfn1:solver "monte-carlo"
set wfn1:print_error F
set wfn1:t_initial 0.1
#set wfn1:corr_expr "wfn1_mx"
set wfn1:corr_expr "wfn1c"
set wfn1:t_bath 0.0
set wfn1:maxit  20000
task wfn1 energy
================================================================================


                                         
                                         


              Northwest Computational Chemistry Package (NWChem) 6.8
              ------------------------------------------------------


                    Environmental Molecular Sciences Laboratory
                       Pacific Northwest National Laboratory
                                Richland, WA 99352

                              Copyright (c) 1994-2015
                       Pacific Northwest National Laboratory
                            Battelle Memorial Institute

             NWChem is an open-source computational chemistry package
                        distributed under the terms of the
                      Educational Community License (ECL) 2.0
             A copy of the license is included with this distribution
                              in the LICENSE.TXT file

                                  ACKNOWLEDGMENT
                                  --------------

            This software and its documentation were developed at the
            EMSL at Pacific Northwest National Laboratory, a multiprogram
            national laboratory, operated for the U.S. Department of Energy
            by Battelle under Contract Number DE-AC05-76RL01830. Support
            for this work was provided by the Department of Energy Office
            of Biological and Environmental Research, Office of Basic
            Energy Sciences, and the Office of Advanced Scientific Computing.


           Job information
           ---------------

    hostname        = erato
    program         = ../../../bin/LINUX64/nwchem
    date            = Mon Mar  1 01:44:51 2021

    compiled        = Sun_Feb_28_18:02:42_2021
    source          = /home/hvandam/nwchem-1-wfn1
    nwchem branch   = Development
    nwchem revision = nwchem_on_git-124-gad72d19fff205e319ffbbf2bca37a04ded6ad57b
    ga revision     = nwchem_on_git-124-gad72d19
    use scalapack   = F
    input           = input-wf.nw
    prefix          = wfn1_dat.
    data base       = ./wfn1_dat.db
    status          = startup
    nproc           =        1
    time left       =     -1s



           Memory information
           ------------------

    heap     =   13107198 doubles =    100.0 Mbytes
    stack    =   13107195 doubles =    100.0 Mbytes
    global   =   26214400 doubles =    200.0 Mbytes (distinct from heap & stack)
    total    =   52428793 doubles =    400.0 Mbytes
    verify   = yes
    hardfail = no 


           Directory information
           ---------------------

  0 permanent = .
  0 scratch   = .




                                NWChem Input Module
                                -------------------


 Turning off AUTOSYM since
 SYMMETRY directive was detected!



                             Geometry "geometry" -> ""
                             -------------------------

 Output coordinates in a.u. (scale by  1.000000000 to convert to a.u.)

  No.       Tag          Charge          X              Y              Z
 ---- ---------------- ---------- -------------- -------------- --------------
    1 H                    1.0000     0.00000000     0.00000000    -3.14434600
    2 H                    1.0000     0.00000000     0.00000000     3.14434600

      Atomic Mass 
      ----------- 

      H                  1.007825


 Effective nuclear repulsion energy (a.u.)       0.1590155791

            Nuclear Dipole moment (a.u.) 
            ----------------------------
        X                 Y               Z
 ---------------- ---------------- ----------------
     0.0000000000     0.0000000000     0.0000000000

      Symmetry information
      --------------------

 Group name             Cs        
 Group number              2
 Group order               2
 No. of unique centers     1

      Symmetry unique atoms

     1


            XYZ format geometry
            -------------------
     2
 geometry
 H                     0.00000000     0.00000000    -1.66391637
 H                     0.00000000     0.00000000     1.66391637

                      Basis "ao basis" -> "" (cartesian)
                      -----
  H (Hydrogen)
  ------------
            Exponent  Coefficients 
       -------------- ---------------------------------------------------------
  1 S  1.87311370E+01  0.033495
  1 S  2.82539370E+00  0.234727
  1 S  6.40121700E-01  0.813757

  2 S  1.61277800E-01  1.000000



 Summary of "ao basis" -> "" (cartesian)
 ------------------------------------------------------------------------------
       Tag                 Description            Shells   Functions and Types
 ---------------- ------------------------------  ------  ---------------------
 H                           6-31g                   2        2   2s



                                NWChem WFN1 Module
                                ------------------



          No. of electrons :     2
           Alpha electrons :     1
            Beta electrons :     1
          Charge           :     0
          Spin multiplicity:     1

 HvD: wfn1_inpdft
 HvD: nquad_task =                     1
 HvD: iangquad   =                     0
 HvD: gridtype   = user      
 HvD: leb        =  T
 HvD: radgrid    = murakn    
 HvD: trunc_neigh=  T
 HvD: lssw       =  T
 HvD: whichssw   = erf1    
 HvD: mxnrad     =                     0
 HvD: mxnang     =                     0
 HVD: wfn1: movecs_in  = atomic                                                                                                                                                                                                                                                          
 HVD: wfn1: movecs_out = ./wfn1_dat.movecs                                                                                                                                                                                                                                               

      Superposition of Atomic Density Guess
      -------------------------------------

 Sum of atomic energies:          -0.99646508

      Non-variational initial energy
      ------------------------------

 Total energy =      -0.682215
 1-e energy   =      -1.314497
 2-e energy   =       0.473266
 HOMO         =      -0.202312
 LUMO         =      -0.179805

 iteration              energy           error
 ---------              ------           -----
         0         -0.88394711        0.080000
         1         -0.88620060        0.080000
         2         -0.88911398        0.080000
         3         -0.89603210        0.080000
         4         -0.89660933        0.080000
         5         -0.89751668        0.080000
         6         -0.90645624        0.080000
         7         -0.90687727        0.080000
         8         -0.90819977        0.080000
         9         -0.90914160        0.080000
        10         -0.91648915        0.080000
        11         -0.92030066        0.080000
        12         -0.92193721        0.080000
        13         -0.92381072        0.080000
        14         -0.92513391        0.080000
        15         -0.92750093        0.080000
        16         -0.92959788        0.080000
        17         -0.93048887        0.080000
        18         -0.93428796        0.080000
        19         -0.93512913        0.080000
        20         -0.93525608        0.080000
        21         -0.93695161        0.080000
        22         -0.93766494        0.080000
        23         -0.93797610        0.080000
        24         -0.93887512        0.080000
        25         -0.93972692        0.080000
        26         -0.94205607        0.080000
        27         -0.94224647        0.080000
        28         -0.94362235        0.080000
        29         -0.94442769        0.080000
        30         -0.94507700        0.080000
        31         -0.94552888        0.080000
        32         -0.94710943        0.080000
        33         -0.94744535        0.080000
        34         -0.94773000        0.080000
        35         -0.94782648        0.080000
        36         -0.94803163        0.080000
        37         -0.94866866        0.080000
        38         -0.94954583        0.080000
        39         -0.94971497        0.080000
        40         -0.94999458        0.080000
        41         -0.95016756        0.080000
        42         -0.95031341        0.080000
        43         -0.95046776        0.080000
        44         -0.95054094        0.080000
        45         -0.95093489        0.080000
        46         -0.95093975        0.080000
        47         -0.95095658        0.080000
        48         -0.95099822        0.080000
        49         -0.95104424        0.080000
        50         -0.95107463        0.080000
        51         -0.95110804        0.080000
        52         -0.95111505        0.080000
        53         -0.95123162        0.080000
        54         -0.95126644        0.063496
        55         -0.95127925        0.063496
        56         -0.95130367        0.063496
        57         -0.95132944        0.050397
        58         -0.95135183        0.050397
        59         -0.95136357        0.050397
        60         -0.95139103        0.050397
        61         -0.95140065        0.040000
        62         -0.95140621        0.040000
        63         -0.95141116        0.040000
        64         -0.95142208        0.031748
        65         -0.95143204        0.025198
        66         -0.95143297        0.020000
        67         -0.95143522        0.020000
        68         -0.95143557        0.020000
        69         -0.95143636        0.020000
        70         -0.95143695        0.015874
        71         -0.95143844        0.015874
        72         -0.95144019        0.015874
        73         -0.95144056        0.012599
        74         -0.95144086        0.007937
        75         -0.95144186        0.007937
        76         -0.95144209        0.006300
        77         -0.95144235        0.005000
        78         -0.95144239        0.005000
        79         -0.95144245        0.003969
        80         -0.95144252        0.003150
        81         -0.95144259        0.003150
        82         -0.95144273        0.002500
        83         -0.95144274        0.002500
        84         -0.95144285        0.002500
        85         -0.95144294        0.002500
        86         -0.95144298        0.002500
        87         -0.95144300        0.002500
        88         -0.95144314        0.002500
        89         -0.95144317        0.002500
        90         -0.95144325        0.002500
        91         -0.95144330        0.002500
        92         -0.95144332        0.002500
        93         -0.95144332        0.002500
        94         -0.95144334        0.001984
        95         -0.95144339        0.001984
        96         -0.95144340        0.001984
        97         -0.95144341        0.001984
        98         -0.95144345        0.001984
        99         -0.95144345        0.001250
       100         -0.95144346        0.001250
       101         -0.95144346        0.001250
       102         -0.95144347        0.000992
       103         -0.95144347        0.000992
       104         -0.95144347        0.000787
       105         -0.95144349        0.000787
       106         -0.95144349        0.000787
       107         -0.95144350        0.000625
       108         -0.95144350        0.000625
       109         -0.95144350        0.000496
       110         -0.95144350        0.000496
       111         -0.95144351        0.000496
       112         -0.95144351        0.000496
       113         -0.95144351        0.000394
       114         -0.95144351        0.000394
       115         -0.95144351        0.000394
       116         -0.95144351        0.000394
       117         -0.95144351        0.000197
       118         -0.95144351        0.000156
       119         -0.95144351        0.000156
       120         -0.95144351        0.000124
       121         -0.95144351        0.000124
       122         -0.95144351        0.000124
       123         -0.95144351        0.000098
       124         -0.95144351        0.000098
       125         -0.95144351        0.000098
       126         -0.95144351        0.000049
       127         -0.95144351        0.000049
       128         -0.95144351        0.000039
       129         -0.95144351        0.000031
       130         -0.95144351        0.000031
       131         -0.95144351        0.000031
       132         -0.95144351        0.000031
       133         -0.95144351        0.000031
       134         -0.95144351        0.000031
       135         -0.95144351        0.000031
       136         -0.95144351        0.000031
       137         -0.95144351        0.000031
       138         -0.95144351        0.000031
       139         -0.95144351        0.000031
       140         -0.95144351        0.000031
       141         -0.95144351        0.000031
       142         -0.95144351        0.000031
       143         -0.95144351        0.000031
       144         -0.95144351        0.000031
       145         -0.95144351        0.000031
       146         -0.95144351        0.000031
       147         -0.95144351        0.000031
       148         -0.95144351        0.000031
       149         -0.95144351        0.000031
       150         -0.95144351        0.000025
       151         -0.95144351        0.000025
       152         -0.95144351        0.000025
       153         -0.95144351        0.000025
       154         -0.95144351        0.000025
       155         -0.95144351        0.000016
       156         -0.95144351        0.000016
       157         -0.95144351        0.000010
       158         -0.95144351        0.000006
       159         -0.95144351        0.000006
       160         -0.95144351        0.000006
       161         -0.95144351        0.000006
       162         -0.95144351        0.000006
       163         -0.95144351        0.000006
       164         -0.95144351        0.000006
       165         -0.95144351        0.000006
       166         -0.95144351        0.000006
       167         -0.95144351        0.000006
       168         -0.95144351        0.000006
       169         -0.95144351        0.000006
       170         -0.95144351        0.000006
       171         -0.95144351        0.000006
       172         -0.95144351        0.000005
       173         -0.95144351        0.000005
       174         -0.95144351        0.000005
       175         -0.95144351        0.000005
       176         -0.95144351        0.000005
       177         -0.95144351        0.000004
       178         -0.95144351        0.000004
       179         -0.95144351        0.000004
       180         -0.95144351        0.000004
       181         -0.95144351        0.000004
       182         -0.95144351        0.000004
       183         -0.95144351        0.000004
       184         -0.95144351        0.000004
       185         -0.95144351        0.000004
       186         -0.95144351        0.000004
       187         -0.95144351        0.000004
       188         -0.95144351        0.000004
       189         -0.95144351        0.000004
       190         -0.95144351        0.000003
       191         -0.95144351        0.000003
       192         -0.95144351        0.000003
       193         -0.95144351        0.000003
       194         -0.95144351        0.000002
       195         -0.95144351        0.000002
       196         -0.95144351        0.000002
       197         -0.95144351        0.000001
       198         -0.95144351        0.000001
       199         -0.95144351        0.000001
       200         -0.95144351        0.000001

 Reached Convergence

 WFN1                     :
 --------------------------
 Total WFN1 energy  =          -0.9514435121
 1-Electron energy  =          -1.2460488348
 2-Electron energy  =           0.3747354201
 Correlation energy =          -0.2391456765
 DFT XC energy      =           0.0000000000
 Entropy energy     =           0.0000000000
 Nuclear energy     =           0.1590155791

 conventional Hartree-Fock:
 --------------------------
 Total SCF energy  =          -0.8579283698
 2-Electron energy =           0.4682505624

                WFN1 Final Natural orbital energies and occupations
                ---------------------------------------------------

              Alpha       Beta            Alpha       Beta  
            --------    --------        --------    --------
       1      0.0000      0.0000          0.5319      0.5319
       2      0.0000      0.0000          0.4345      0.4345
       3      0.0000      0.0000          0.0181      0.0181
       4      0.0000      0.0000          0.0154      0.0154

             WFN1 Final Correlation function energies and occupations
             --------------------------------------------------------

              Alpha       Beta            Alpha       Beta  
            --------    --------        --------    --------
       1      0.0000      0.0000          1.0000      1.0000
       2      0.0000      0.0000          0.0000      0.0000
       3      0.0000      0.0000          0.0000      0.0000
       4      0.0000      0.0000          0.0000      0.0000

                WFN1 Final alpha-alpha 2-matrix occupation numbers
                --------------------------------------------------


 global array: g_momo1[1:4,1:4],  handle: -990 

            1           2           3           4  
       ----------- ----------- ----------- -----------
   1       0.00000     0.00000     0.00000     0.00000
   2       0.00000     0.00000    -0.00000     0.00000
   3       0.00000    -0.00000    -0.00000    -0.00000
   4       0.00000    -0.00000    -0.00000     0.00000

                 WFN1 Final beta-beta 2-matrix occupation numbers
                 ------------------------------------------------


 global array: g_momo2[1:4,1:4],  handle: -989 

            1           2           3           4  
       ----------- ----------- ----------- -----------
   1       0.00000     0.00000     0.00000     0.00000
   2       0.00000     0.00000    -0.00000     0.00000
   3       0.00000    -0.00000    -0.00000    -0.00000
   4       0.00000    -0.00000    -0.00000     0.00000

                  WFN1 Final alpha Correlation Function Analysis
                  ----------------------------------------------


 global array: Ca[1:4,1:4],  handle: -981 

                     1                       2                       3                       4  
       ----------------------- ----------------------- ----------------------- -----------------------
   1       0.20720,    0.69927     0.18958,    0.64593     0.06498,   -0.08711     0.05565,    0.00405
   2       0.61538,    0.23633    -0.69115,   -0.25901    -0.07869,   -0.11682     0.01103,   -0.02671
   3       0.00543,   -0.13442    -0.00897,    0.02898     0.47187,   -0.69751    -0.31004,    0.41914
   4      -0.04341,   -0.11642    -0.03005,    0.01534     0.35445,   -0.36544     0.60642,   -0.59708

                   WFN1 Final beta Correlation Function Analysis
                   ---------------------------------------------


 global array: Cb[1:4,1:4],  handle: -980 

                     1                       2                       3                       4  
       ----------------------- ----------------------- ----------------------- -----------------------
   1       0.20720,    0.69927     0.18958,    0.64593     0.06498,   -0.08711     0.05565,    0.00405
   2       0.61538,    0.23633    -0.69115,   -0.25901    -0.07869,   -0.11682     0.01103,   -0.02671
   3       0.00543,   -0.13442    -0.00897,    0.02898     0.47187,   -0.69751    -0.31004,    0.41914
   4      -0.04341,   -0.11642    -0.03005,    0.01534     0.35445,   -0.36544     0.60642,   -0.59708

                     WFN1 Final Alpha Natural Orbital Analysis
                     -----------------------------------------

 Vector    1  Occ=5.319122D-01  E= 0.000000D+00
              MO Center=  0.0D+00,  0.0D+00,  1.9D-07, r^2= 3.6D+00
   Bfn.  Coefficient  Atom+Function         Bfn.  Coefficient  Atom+Function  
  ----- ------------  ---------------      ----- ------------  ---------------
     2     -0.515628  1 H  s                  4     -0.515628  2 H  s          
     1     -0.241471  1 H  s                  3     -0.241471  2 H  s          

 Vector    2  Occ=4.345493D-01  E= 0.000000D+00
              MO Center=  0.0D+00,  0.0D+00, -1.7D-07, r^2= 3.7D+00
   Bfn.  Coefficient  Atom+Function         Bfn.  Coefficient  Atom+Function  
  ----- ------------  ---------------      ----- ------------  ---------------
     2      0.510973  1 H  s                  4     -0.510973  2 H  s          
     1      0.266818  1 H  s                  3     -0.266818  2 H  s          

 Vector    3  Occ=1.809940D-02  E= 0.000000D+00
              MO Center=  0.0D+00,  0.0D+00,  3.9D-07, r^2= 3.7D+00
   Bfn.  Coefficient  Atom+Function         Bfn.  Coefficient  Atom+Function  
  ----- ------------  ---------------      ----- ------------  ---------------
     1      0.897323  1 H  s                  3      0.897324  2 H  s          
     2     -0.750633  1 H  s                  4     -0.750634  2 H  s          

 Vector    4  Occ=1.543911D-02  E= 0.000000D+00
              MO Center=  0.0D+00,  0.0D+00, -4.1D-07, r^2= 4.1D+00
   Bfn.  Coefficient  Atom+Function         Bfn.  Coefficient  Atom+Function  
  ----- ------------  ---------------      ----- ------------  ---------------
     1     -0.912519  1 H  s                  3      0.912519  2 H  s          
     2      0.825614  1 H  s                  4     -0.825614  2 H  s          


                     WFN1 Final Beta Natural Orbital Analysis
                     ----------------------------------------

 Vector    1  Occ=5.319122D-01  E= 0.000000D+00
              MO Center=  0.0D+00,  0.0D+00,  1.9D-07, r^2= 3.6D+00
   Bfn.  Coefficient  Atom+Function         Bfn.  Coefficient  Atom+Function  
  ----- ------------  ---------------      ----- ------------  ---------------
     2     -0.515628  1 H  s                  4     -0.515628  2 H  s          
     1     -0.241471  1 H  s                  3     -0.241471  2 H  s          

 Vector    2  Occ=4.345493D-01  E= 0.000000D+00
              MO Center=  0.0D+00,  0.0D+00, -1.7D-07, r^2= 3.7D+00
   Bfn.  Coefficient  Atom+Function         Bfn.  Coefficient  Atom+Function  
  ----- ------------  ---------------      ----- ------------  ---------------
     2      0.510973  1 H  s                  4     -0.510973  2 H  s          
     1      0.266818  1 H  s                  3     -0.266818  2 H  s          

 Vector    3  Occ=1.809940D-02  E= 0.000000D+00
              MO Center=  0.0D+00,  0.0D+00,  3.9D-07, r^2= 3.7D+00
   Bfn.  Coefficient  Atom+Function         Bfn.  Coefficient  Atom+Function  
  ----- ------------  ---------------      ----- ------------  ---------------
     1      0.897323  1 H  s                  3      0.897324  2 H  s          
     2     -0.750633  1 H  s                  4     -0.750634  2 H  s          

 Vector    4  Occ=1.543911D-02  E= 0.000000D+00
              MO Center=  0.0D+00,  0.0D+00, -4.1D-07, r^2= 4.1D+00
   Bfn.  Coefficient  Atom+Function         Bfn.  Coefficient  Atom+Function  
  ----- ------------  ---------------      ----- ------------  ---------------
     1     -0.912519  1 H  s                  3      0.912519  2 H  s          
     2      0.825614  1 H  s                  4     -0.825614  2 H  s          


 Task  times  cpu:        9.2s     wall:       12.3s
 Summary of allocated global arrays
-----------------------------------
  No active global arrays



                         GA Statistics for process    0
                         ------------------------------

       create   destroy   get      put      acc     scatter   gather  read&inc
calls:   44       44     6.83e+06 1.44e+04 1.87e+04    0        0       11     
number of processes/call 1.00e+00 1.00e+00 1.00e+00 0.00e+00 0.00e+00
bytes total:             8.78e+08 2.39e+06 2.99e+06 0.00e+00 0.00e+00 8.80e+01
bytes remote:            0.00e+00 0.00e+00 0.00e+00 0.00e+00 0.00e+00 0.00e+00
Max memory consumed for GA by this process: 10624 bytes
MA_summarize_allocated_blocks: starting scan ...
MA_summarize_allocated_blocks: scan completed: 0 heap blocks, 0 stack blocks
MA usage statistics:

	allocation statistics:
					      heap	     stack
					      ----	     -----
	current number of blocks	         0	         0
	maximum number of blocks	        19	        17
	current total bytes		         0	         0
	maximum total bytes		   3204344	  22508664
	maximum total K-bytes		      3205	     22509
	maximum total M-bytes		         4	        23


                                NWChem Input Module
                                -------------------





                                     CITATION
                                     --------
                Please cite the following reference when publishing
                           results obtained with NWChem:

                 M. Valiev, E.J. Bylaska, N. Govind, K. Kowalski,
              T.P. Straatsma, H.J.J. van Dam, D. Wang, J. Nieplocha,
                        E. Apra, T.L. Windus, W.A. de Jong
                 "NWChem: a comprehensive and scalable open-source
                  solution for large scale molecular simulations"
                      Comput. Phys. Commun. 181, 1477 (2010)
                           doi:10.1016/j.cpc.2010.04.018

                                      AUTHORS
                                      -------
          E. Apra, E. J. Bylaska, W. A. de Jong, N. Govind, K. Kowalski,
       T. P. Straatsma, M. Valiev, H. J. J. van Dam, D. Wang, T. L. Windus,
        J. Hammond, J. Autschbach, K. Bhaskaran-Nair, J. Brabec, K. Lopata,
    S. A. Fischer, S. Krishnamoorthy, M. Jacquelin, W. Ma, M. Klemm, O. Villa,
      Y. Chen, V. Anisimov, F. Aquino, S. Hirata, M. T. Hackler, V. Konjkov,
      T. Risthaus, M. Malagoli, A. Marenich, A. Otero-de-la-Roza, J. Mullin,
        P. Nichols, R. Peverati, J. Pittner, Y. Zhao, P.-D. Fan, A. Fonari,
       M. Williamson, R. J. Harrison, J. R. Rehr, M. Dupuis, D. Silverstein,
    D. M. A. Smith, J. Nieplocha, V. Tipparaju, M. Krishnan, B. E. Van Kuiken,
        A. Vazquez-Mayagoitia, L. Jensen, M. Swart, Q. Wu, T. Van Voorhis,
     A. A. Auer, M. Nooijen, L. D. Crosby, E. Brown, G. Cisneros, G. I. Fann,
   H. Fruchtl, J. Garza, K. Hirao, R. A. Kendall, J. A. Nichols, K. Tsemekhman,
    K. Wolinski, J. Anchell, D. E. Bernholdt, P. Borowski, T. Clark, D. Clerc,
   H. Dachsel, M. J. O. Deegan, K. Dyall, D. Elwood, E. Glendening, M. Gutowski,
   A. C. Hess, J. Jaffe, B. G. Johnson, J. Ju, R. Kobayashi, R. Kutteh, Z. Lin,
   R. Littlefield, X. Long, B. Meng, T. Nakajima, S. Niu, L. Pollack, M. Rosing,
   K. Glaesemann, G. Sandrone, M. Stave, H. Taylor, G. Thomas, J. H. van Lenthe,
                               A. T. Wong, Z. Zhang.

 Total times  cpu:        9.2s     wall:       12.3s
