 argument  1 = input-wf.nw



============================== echo of input deck ==============================
echo
start wfn1_dat
geometry units au noautoz
  H 0 0 -3.74434600000000000000
  H 0 0  3.74434600000000000000
  symmetry cs
end
basis
  H library 6-31g
end
set wfn1:input_vectors "atomic"
set wfn1:solver "monte-carlo"
set wfn1:print_error F
set wfn1:t_initial 0.1
#set wfn1:corr_expr "wfn1_mx"
set wfn1:corr_expr "wfn1c"
set wfn1:t_bath 0.0
set wfn1:maxit  20000
task wfn1 energy
================================================================================


                                         
                                         


              Northwest Computational Chemistry Package (NWChem) 6.8
              ------------------------------------------------------


                    Environmental Molecular Sciences Laboratory
                       Pacific Northwest National Laboratory
                                Richland, WA 99352

                              Copyright (c) 1994-2015
                       Pacific Northwest National Laboratory
                            Battelle Memorial Institute

             NWChem is an open-source computational chemistry package
                        distributed under the terms of the
                      Educational Community License (ECL) 2.0
             A copy of the license is included with this distribution
                              in the LICENSE.TXT file

                                  ACKNOWLEDGMENT
                                  --------------

            This software and its documentation were developed at the
            EMSL at Pacific Northwest National Laboratory, a multiprogram
            national laboratory, operated for the U.S. Department of Energy
            by Battelle under Contract Number DE-AC05-76RL01830. Support
            for this work was provided by the Department of Energy Office
            of Biological and Environmental Research, Office of Basic
            Energy Sciences, and the Office of Advanced Scientific Computing.


           Job information
           ---------------

    hostname        = erato
    program         = ../../../bin/LINUX64/nwchem
    date            = Mon Mar  1 01:47:39 2021

    compiled        = Sun_Feb_28_18:02:42_2021
    source          = /home/hvandam/nwchem-1-wfn1
    nwchem branch   = Development
    nwchem revision = nwchem_on_git-124-gad72d19fff205e319ffbbf2bca37a04ded6ad57b
    ga revision     = nwchem_on_git-124-gad72d19
    use scalapack   = F
    input           = input-wf.nw
    prefix          = wfn1_dat.
    data base       = ./wfn1_dat.db
    status          = startup
    nproc           =        1
    time left       =     -1s



           Memory information
           ------------------

    heap     =   13107200 doubles =    100.0 Mbytes
    stack    =   13107197 doubles =    100.0 Mbytes
    global   =   26214400 doubles =    200.0 Mbytes (distinct from heap & stack)
    total    =   52428797 doubles =    400.0 Mbytes
    verify   = yes
    hardfail = no 


           Directory information
           ---------------------

  0 permanent = .
  0 scratch   = .




                                NWChem Input Module
                                -------------------


 Turning off AUTOSYM since
 SYMMETRY directive was detected!



                             Geometry "geometry" -> ""
                             -------------------------

 Output coordinates in a.u. (scale by  1.000000000 to convert to a.u.)

  No.       Tag          Charge          X              Y              Z
 ---- ---------------- ---------- -------------- -------------- --------------
    1 H                    1.0000     0.00000000     0.00000000    -3.74434600
    2 H                    1.0000     0.00000000     0.00000000     3.74434600

      Atomic Mass 
      ----------- 

      H                  1.007825


 Effective nuclear repulsion energy (a.u.)       0.1335346680

            Nuclear Dipole moment (a.u.) 
            ----------------------------
        X                 Y               Z
 ---------------- ---------------- ----------------
     0.0000000000     0.0000000000     0.0000000000

      Symmetry information
      --------------------

 Group name             Cs        
 Group number              2
 Group order               2
 No. of unique centers     1

      Symmetry unique atoms

     1


            XYZ format geometry
            -------------------
     2
 geometry
 H                     0.00000000     0.00000000    -1.98142272
 H                     0.00000000     0.00000000     1.98142272

                      Basis "ao basis" -> "" (cartesian)
                      -----
  H (Hydrogen)
  ------------
            Exponent  Coefficients 
       -------------- ---------------------------------------------------------
  1 S  1.87311370E+01  0.033495
  1 S  2.82539370E+00  0.234727
  1 S  6.40121700E-01  0.813757

  2 S  1.61277800E-01  1.000000



 Summary of "ao basis" -> "" (cartesian)
 ------------------------------------------------------------------------------
       Tag                 Description            Shells   Functions and Types
 ---------------- ------------------------------  ------  ---------------------
 H                           6-31g                   2        2   2s



                                NWChem WFN1 Module
                                ------------------



          No. of electrons :     2
           Alpha electrons :     1
            Beta electrons :     1
          Charge           :     0
          Spin multiplicity:     1

 HvD: wfn1_inpdft
 HvD: nquad_task =                     1
 HvD: iangquad   =                     0
 HvD: gridtype   = user      
 HvD: leb        =  T
 HvD: radgrid    = murakn    
 HvD: trunc_neigh=  T
 HvD: lssw       =  T
 HvD: whichssw   = erf1    
 HvD: mxnrad     =                     0
 HvD: mxnang     =                     0
 HVD: wfn1: movecs_in  = atomic                                                                                                                                                                                                                                                          
 HVD: wfn1: movecs_out = ./wfn1_dat.movecs                                                                                                                                                                                                                                               

      Superposition of Atomic Density Guess
      -------------------------------------

 Sum of atomic energies:          -0.99646508

      Non-variational initial energy
      ------------------------------

 Total energy =      -0.682116
 1-e energy   =      -1.263535
 2-e energy   =       0.447884
 HOMO         =      -0.194884
 LUMO         =      -0.187475

 iteration              energy           error
 ---------              ------           -----
         0         -0.87656588        0.080000
         1         -0.88503786        0.080000
         2         -0.89489356        0.080000
         3         -0.89784215        0.080000
         4         -0.90120363        0.080000
         5         -0.90130668        0.080000
         6         -0.90449650        0.080000
         7         -0.90579024        0.080000
         8         -0.90647334        0.080000
         9         -0.90690767        0.080000
        10         -0.91113879        0.080000
        11         -0.91345816        0.080000
        12         -0.91596448        0.080000
        13         -0.91789639        0.080000
        14         -0.91863836        0.080000
        15         -0.92076322        0.080000
        16         -0.92089871        0.080000
        17         -0.92440247        0.080000
        18         -0.92589076        0.080000
        19         -0.92780825        0.080000
        20         -0.92899635        0.080000
        21         -0.92904123        0.080000
        22         -0.92957342        0.080000
        23         -0.93121210        0.080000
        24         -0.93371482        0.080000
        25         -0.93448463        0.080000
        26         -0.93494962        0.080000
        27         -0.93527431        0.080000
        28         -0.93557041        0.080000
        29         -0.93739140        0.080000
        30         -0.93785306        0.080000
        31         -0.93855019        0.080000
        32         -0.93885812        0.080000
        33         -0.93900478        0.080000
        34         -0.93937280        0.080000
        35         -0.93980273        0.080000
        36         -0.94028488        0.080000
        37         -0.94134967        0.080000
        38         -0.94164547        0.080000
        39         -0.94190393        0.080000
        40         -0.94203937        0.080000
        41         -0.94229003        0.080000
        42         -0.94263598        0.080000
        43         -0.94283051        0.080000
        44         -0.94285685        0.080000
        45         -0.94285883        0.063496
        46         -0.94287531        0.063496
        47         -0.94288556        0.063496
        48         -0.94291663        0.063496
        49         -0.94292015        0.040000
        50         -0.94292212        0.040000
        51         -0.94292374        0.025198
        52         -0.94292832        0.025198
        53         -0.94293114        0.025198
        54         -0.94293489        0.025198
        55         -0.94293531        0.020000
        56         -0.94294075        0.020000
        57         -0.94294487        0.020000
        58         -0.94294501        0.015874
        59         -0.94294505        0.012599
        60         -0.94294515        0.010000
        61         -0.94294736        0.010000
        62         -0.94294849        0.010000
        63         -0.94294893        0.007937
        64         -0.94294931        0.007937
        65         -0.94294935        0.006300
        66         -0.94295001        0.006300
        67         -0.94295002        0.005000
        68         -0.94295002        0.003150
        69         -0.94295009        0.003150
        70         -0.94295011        0.002500
        71         -0.94295019        0.002500
        72         -0.94295019        0.001575
        73         -0.94295020        0.001575
        74         -0.94295023        0.001575
        75         -0.94295023        0.001575
        76         -0.94295023        0.001575
        77         -0.94295025        0.001575
        78         -0.94295025        0.000992
        79         -0.94295025        0.000992
        80         -0.94295025        0.000496
        81         -0.94295025        0.000496
        82         -0.94295025        0.000496
        83         -0.94295026        0.000394
        84         -0.94295026        0.000313
        85         -0.94295026        0.000313
        86         -0.94295026        0.000313
        87         -0.94295026        0.000156
        88         -0.94295026        0.000156
        89         -0.94295026        0.000156
        90         -0.94295026        0.000078
        91         -0.94295026        0.000049
        92         -0.94295026        0.000039
        93         -0.94295026        0.000039
        94         -0.94295026        0.000039
        95         -0.94295026        0.000039
        96         -0.94295026        0.000031
        97         -0.94295026        0.000025
        98         -0.94295026        0.000025
        99         -0.94295026        0.000020
       100         -0.94295026        0.000020
       101         -0.94295026        0.000020
       102         -0.94295026        0.000016
       103         -0.94295026        0.000016
       104         -0.94295026        0.000016
       105         -0.94295026        0.000016
       106         -0.94295026        0.000016
       107         -0.94295026        0.000008
       108         -0.94295026        0.000008
       109         -0.94295026        0.000008
       110         -0.94295026        0.000008
       111         -0.94295026        0.000008
       112         -0.94295026        0.000008
       113         -0.94295026        0.000008
       114         -0.94295026        0.000008
       115         -0.94295026        0.000008
       116         -0.94295026        0.000008
       117         -0.94295026        0.000008
       118         -0.94295026        0.000008
       119         -0.94295026        0.000008
       120         -0.94295026        0.000008
       121         -0.94295026        0.000008
       122         -0.94295026        0.000008
       123         -0.94295026        0.000006
       124         -0.94295026        0.000006
       125         -0.94295026        0.000006
       126         -0.94295026        0.000002
       127         -0.94295026        0.000002
       128         -0.94295026        0.000002
       129         -0.94295026        0.000002
       130         -0.94295026        0.000002
       131         -0.94295026        0.000002
       132         -0.94295026        0.000002
       133         -0.94295026        0.000002
       134         -0.94295026        0.000002
       135         -0.94295026        0.000001
       136         -0.94295026        0.000001
       137         -0.94295026        0.000001
       138         -0.94295026        0.000001
       139         -0.94295026        0.000001

 Reached Convergence

 WFN1                     :
 --------------------------
 Total WFN1 energy  =          -0.9429502567
 1-Electron energy  =          -1.1951565697
 2-Electron energy  =           0.3623337299
 Correlation energy =          -0.2436620850
 DFT XC energy      =           0.0000000000
 Entropy energy     =           0.0000000000
 Nuclear energy     =           0.1335346680

 conventional Hartree-Fock:
 --------------------------
 Total SCF energy  =          -0.8617325015
 2-Electron energy =           0.4435514851

                WFN1 Final Natural orbital energies and occupations
                ---------------------------------------------------

              Alpha       Beta            Alpha       Beta  
            --------    --------        --------    --------
       1      0.0000      0.0000          0.5005      0.5005
       2      0.0000      0.0000          0.4666      0.4666
       3      0.0000      0.0000          0.0170      0.0170
       4      0.0000      0.0000          0.0160      0.0160

             WFN1 Final Correlation function energies and occupations
             --------------------------------------------------------

              Alpha       Beta            Alpha       Beta  
            --------    --------        --------    --------
       1      0.0000      0.0000          1.0000      1.0000
       2      0.0000      0.0000          0.0000      0.0000
       3      0.0000      0.0000          0.0000      0.0000
       4      0.0000      0.0000          0.0000      0.0000

                WFN1 Final alpha-alpha 2-matrix occupation numbers
                --------------------------------------------------


 global array: g_momo1[1:4,1:4],  handle: -990 

            1           2           3           4  
       ----------- ----------- ----------- -----------
   1       0.00000     0.00000     0.00000     0.00000
   2      -0.00000     0.00000     0.00000     0.00000
   3       0.00000     0.00000     0.00000    -0.00000
   4       0.00000     0.00000     0.00000     0.00000

                 WFN1 Final beta-beta 2-matrix occupation numbers
                 ------------------------------------------------


 global array: g_momo2[1:4,1:4],  handle: -989 

            1           2           3           4  
       ----------- ----------- ----------- -----------
   1       0.00000     0.00000     0.00000     0.00000
   2      -0.00000     0.00000     0.00000     0.00000
   3       0.00000     0.00000     0.00000    -0.00000
   4       0.00000     0.00000     0.00000     0.00000

                  WFN1 Final alpha Correlation Function Analysis
                  ----------------------------------------------


 global array: Ca[1:4,1:4],  handle: -977 

                     1                       2                       3                       4  
       ----------------------- ----------------------- ----------------------- -----------------------
   1      -0.60237,    0.37094    -0.58951,    0.37501     0.00913,   -0.01915     0.09987,    0.03112
   2       0.67344,   -0.11423    -0.70327,    0.12273    -0.03543,   -0.00631    -0.08543,   -0.12326
   3       0.03998,    0.12404    -0.03070,   -0.02634    -0.38638,    0.66485    -0.30832,    0.54313
   4       0.01181,   -0.12592     0.01542,    0.01806    -0.60853,    0.19136     0.72485,   -0.22604

                   WFN1 Final beta Correlation Function Analysis
                   ---------------------------------------------


 global array: Cb[1:4,1:4],  handle: -976 

                     1                       2                       3                       4  
       ----------------------- ----------------------- ----------------------- -----------------------
   1      -0.60237,    0.37094    -0.58951,    0.37501     0.00913,   -0.01915     0.09987,    0.03112
   2       0.67344,   -0.11423    -0.70327,    0.12273    -0.03543,   -0.00631    -0.08543,   -0.12326
   3       0.03998,    0.12404    -0.03070,   -0.02634    -0.38638,    0.66485    -0.30832,    0.54313
   4       0.01181,   -0.12592     0.01542,    0.01806    -0.60853,    0.19136     0.72485,   -0.22604

                     WFN1 Final Alpha Natural Orbital Analysis
                     -----------------------------------------

 Vector    1  Occ=5.004516D-01  E= 0.000000D+00
              MO Center=  0.0D+00,  0.0D+00,  3.7D-07, r^2= 4.8D+00
   Bfn.  Coefficient  Atom+Function         Bfn.  Coefficient  Atom+Function  
  ----- ------------  ---------------      ----- ------------  ---------------
     2     -0.516153  1 H  s                  4     -0.516153  2 H  s          
     1     -0.248463  1 H  s                  3     -0.248463  2 H  s          

 Vector    2  Occ=4.665687D-01  E= 0.000000D+00
              MO Center=  0.0D+00,  0.0D+00, -3.8D-07, r^2= 4.8D+00
   Bfn.  Coefficient  Atom+Function         Bfn.  Coefficient  Atom+Function  
  ----- ------------  ---------------      ----- ------------  ---------------
     2      0.511552  1 H  s                  4     -0.511552  2 H  s          
     1      0.258795  1 H  s                  3     -0.258795  2 H  s          

 Vector    3  Occ=1.698568D-02  E= 0.000000D+00
              MO Center=  0.0D+00,  0.0D+00, -1.1D-06, r^2= 5.0D+00
   Bfn.  Coefficient  Atom+Function         Bfn.  Coefficient  Atom+Function  
  ----- ------------  ---------------      ----- ------------  ---------------
     1     -0.902402  1 H  s                  3     -0.902401  2 H  s          
     2      0.774747  1 H  s                  4      0.774746  2 H  s          

 Vector    4  Occ=1.599410D-02  E= 0.000000D+00
              MO Center=  0.0D+00,  0.0D+00,  1.1D-06, r^2= 5.1D+00
   Bfn.  Coefficient  Atom+Function         Bfn.  Coefficient  Atom+Function  
  ----- ------------  ---------------      ----- ------------  ---------------
     1     -0.906615  1 H  s                  3      0.906615  2 H  s          
     2      0.798125  1 H  s                  4     -0.798125  2 H  s          


                     WFN1 Final Beta Natural Orbital Analysis
                     ----------------------------------------

 Vector    1  Occ=5.004516D-01  E= 0.000000D+00
              MO Center=  0.0D+00,  0.0D+00,  3.7D-07, r^2= 4.8D+00
   Bfn.  Coefficient  Atom+Function         Bfn.  Coefficient  Atom+Function  
  ----- ------------  ---------------      ----- ------------  ---------------
     2     -0.516153  1 H  s                  4     -0.516153  2 H  s          
     1     -0.248463  1 H  s                  3     -0.248463  2 H  s          

 Vector    2  Occ=4.665687D-01  E= 0.000000D+00
              MO Center=  0.0D+00,  0.0D+00, -3.8D-07, r^2= 4.8D+00
   Bfn.  Coefficient  Atom+Function         Bfn.  Coefficient  Atom+Function  
  ----- ------------  ---------------      ----- ------------  ---------------
     2      0.511552  1 H  s                  4     -0.511552  2 H  s          
     1      0.258795  1 H  s                  3     -0.258795  2 H  s          

 Vector    3  Occ=1.698568D-02  E= 0.000000D+00
              MO Center=  0.0D+00,  0.0D+00, -1.1D-06, r^2= 5.0D+00
   Bfn.  Coefficient  Atom+Function         Bfn.  Coefficient  Atom+Function  
  ----- ------------  ---------------      ----- ------------  ---------------
     1     -0.902402  1 H  s                  3     -0.902401  2 H  s          
     2      0.774747  1 H  s                  4      0.774746  2 H  s          

 Vector    4  Occ=1.599410D-02  E= 0.000000D+00
              MO Center=  0.0D+00,  0.0D+00,  1.1D-06, r^2= 5.1D+00
   Bfn.  Coefficient  Atom+Function         Bfn.  Coefficient  Atom+Function  
  ----- ------------  ---------------      ----- ------------  ---------------
     1     -0.906615  1 H  s                  3      0.906615  2 H  s          
     2      0.798125  1 H  s                  4     -0.798125  2 H  s          


 Task  times  cpu:        7.0s     wall:        9.4s
 Summary of allocated global arrays
-----------------------------------
  No active global arrays



                         GA Statistics for process    0
                         ------------------------------

       create   destroy   get      put      acc     scatter   gather  read&inc
calls:   44       44     5.33e+06 1.13e+04 1.47e+04    0        0       11     
number of processes/call 1.00e+00 1.00e+00 1.00e+00 0.00e+00 0.00e+00
bytes total:             6.85e+08 1.87e+06 2.33e+06 0.00e+00 0.00e+00 8.80e+01
bytes remote:            0.00e+00 0.00e+00 0.00e+00 0.00e+00 0.00e+00 0.00e+00
Max memory consumed for GA by this process: 10624 bytes
MA_summarize_allocated_blocks: starting scan ...
MA_summarize_allocated_blocks: scan completed: 0 heap blocks, 0 stack blocks
MA usage statistics:

	allocation statistics:
					      heap	     stack
					      ----	     -----
	current number of blocks	         0	         0
	maximum number of blocks	        19	        17
	current total bytes		         0	         0
	maximum total bytes		   3204328	  22508616
	maximum total K-bytes		      3205	     22509
	maximum total M-bytes		         4	        23


                                NWChem Input Module
                                -------------------





                                     CITATION
                                     --------
                Please cite the following reference when publishing
                           results obtained with NWChem:

                 M. Valiev, E.J. Bylaska, N. Govind, K. Kowalski,
              T.P. Straatsma, H.J.J. van Dam, D. Wang, J. Nieplocha,
                        E. Apra, T.L. Windus, W.A. de Jong
                 "NWChem: a comprehensive and scalable open-source
                  solution for large scale molecular simulations"
                      Comput. Phys. Commun. 181, 1477 (2010)
                           doi:10.1016/j.cpc.2010.04.018

                                      AUTHORS
                                      -------
          E. Apra, E. J. Bylaska, W. A. de Jong, N. Govind, K. Kowalski,
       T. P. Straatsma, M. Valiev, H. J. J. van Dam, D. Wang, T. L. Windus,
        J. Hammond, J. Autschbach, K. Bhaskaran-Nair, J. Brabec, K. Lopata,
    S. A. Fischer, S. Krishnamoorthy, M. Jacquelin, W. Ma, M. Klemm, O. Villa,
      Y. Chen, V. Anisimov, F. Aquino, S. Hirata, M. T. Hackler, V. Konjkov,
      T. Risthaus, M. Malagoli, A. Marenich, A. Otero-de-la-Roza, J. Mullin,
        P. Nichols, R. Peverati, J. Pittner, Y. Zhao, P.-D. Fan, A. Fonari,
       M. Williamson, R. J. Harrison, J. R. Rehr, M. Dupuis, D. Silverstein,
    D. M. A. Smith, J. Nieplocha, V. Tipparaju, M. Krishnan, B. E. Van Kuiken,
        A. Vazquez-Mayagoitia, L. Jensen, M. Swart, Q. Wu, T. Van Voorhis,
     A. A. Auer, M. Nooijen, L. D. Crosby, E. Brown, G. Cisneros, G. I. Fann,
   H. Fruchtl, J. Garza, K. Hirao, R. A. Kendall, J. A. Nichols, K. Tsemekhman,
    K. Wolinski, J. Anchell, D. E. Bernholdt, P. Borowski, T. Clark, D. Clerc,
   H. Dachsel, M. J. O. Deegan, K. Dyall, D. Elwood, E. Glendening, M. Gutowski,
   A. C. Hess, J. Jaffe, B. G. Johnson, J. Ju, R. Kobayashi, R. Kutteh, Z. Lin,
   R. Littlefield, X. Long, B. Meng, T. Nakajima, S. Niu, L. Pollack, M. Rosing,
   K. Glaesemann, G. Sandrone, M. Stave, H. Taylor, G. Thomas, J. H. van Lenthe,
                               A. T. Wong, Z. Zhang.

 Total times  cpu:        7.0s     wall:        9.4s
