 argument  1 = input-wf.nw



============================== echo of input deck ==============================
echo
start wfn1_dat
geometry units au noautoz
  H 0 0 -5.64434600000000000000
  H 0 0  5.64434600000000000000
  symmetry cs
end
basis
  H library 6-31g
end
set wfn1:input_vectors "atomic"
set wfn1:solver "monte-carlo"
set wfn1:print_error F
set wfn1:t_initial 0.1
#set wfn1:corr_expr "wfn1_mx"
set wfn1:corr_expr "wfn1c"
set wfn1:t_bath 0.0
set wfn1:maxit  20000
task wfn1 energy
================================================================================


                                         
                                         


              Northwest Computational Chemistry Package (NWChem) 6.8
              ------------------------------------------------------


                    Environmental Molecular Sciences Laboratory
                       Pacific Northwest National Laboratory
                                Richland, WA 99352

                              Copyright (c) 1994-2015
                       Pacific Northwest National Laboratory
                            Battelle Memorial Institute

             NWChem is an open-source computational chemistry package
                        distributed under the terms of the
                      Educational Community License (ECL) 2.0
             A copy of the license is included with this distribution
                              in the LICENSE.TXT file

                                  ACKNOWLEDGMENT
                                  --------------

            This software and its documentation were developed at the
            EMSL at Pacific Northwest National Laboratory, a multiprogram
            national laboratory, operated for the U.S. Department of Energy
            by Battelle under Contract Number DE-AC05-76RL01830. Support
            for this work was provided by the Department of Energy Office
            of Biological and Environmental Research, Office of Basic
            Energy Sciences, and the Office of Advanced Scientific Computing.


           Job information
           ---------------

    hostname        = erato
    program         = ../../../bin/LINUX64/nwchem
    date            = Mon Mar  1 01:56:42 2021

    compiled        = Sun_Feb_28_18:02:42_2021
    source          = /home/hvandam/nwchem-1-wfn1
    nwchem branch   = Development
    nwchem revision = nwchem_on_git-124-gad72d19fff205e319ffbbf2bca37a04ded6ad57b
    ga revision     = nwchem_on_git-124-gad72d19
    use scalapack   = F
    input           = input-wf.nw
    prefix          = wfn1_dat.
    data base       = ./wfn1_dat.db
    status          = startup
    nproc           =        1
    time left       =     -1s



           Memory information
           ------------------

    heap     =   13107198 doubles =    100.0 Mbytes
    stack    =   13107195 doubles =    100.0 Mbytes
    global   =   26214400 doubles =    200.0 Mbytes (distinct from heap & stack)
    total    =   52428793 doubles =    400.0 Mbytes
    verify   = yes
    hardfail = no 


           Directory information
           ---------------------

  0 permanent = .
  0 scratch   = .




                                NWChem Input Module
                                -------------------


 Turning off AUTOSYM since
 SYMMETRY directive was detected!



                             Geometry "geometry" -> ""
                             -------------------------

 Output coordinates in a.u. (scale by  1.000000000 to convert to a.u.)

  No.       Tag          Charge          X              Y              Z
 ---- ---------------- ---------- -------------- -------------- --------------
    1 H                    1.0000     0.00000000     0.00000000    -5.64434600
    2 H                    1.0000     0.00000000     0.00000000     5.64434600

      Atomic Mass 
      ----------- 

      H                  1.007825


 Effective nuclear repulsion energy (a.u.)       0.0885842222

            Nuclear Dipole moment (a.u.) 
            ----------------------------
        X                 Y               Z
 ---------------- ---------------- ----------------
     0.0000000000     0.0000000000     0.0000000000

      Symmetry information
      --------------------

 Group name             Cs        
 Group number              2
 Group order               2
 No. of unique centers     1

      Symmetry unique atoms

     1


            XYZ format geometry
            -------------------
     2
 geometry
 H                     0.00000000     0.00000000    -2.98685949
 H                     0.00000000     0.00000000     2.98685949

                      Basis "ao basis" -> "" (cartesian)
                      -----
  H (Hydrogen)
  ------------
            Exponent  Coefficients 
       -------------- ---------------------------------------------------------
  1 S  1.87311370E+01  0.033495
  1 S  2.82539370E+00  0.234727
  1 S  6.40121700E-01  0.813757

  2 S  1.61277800E-01  1.000000



 Summary of "ao basis" -> "" (cartesian)
 ------------------------------------------------------------------------------
       Tag                 Description            Shells   Functions and Types
 ---------------- ------------------------------  ------  ---------------------
 H                           6-31g                   2        2   2s



                                NWChem WFN1 Module
                                ------------------



          No. of electrons :     2
           Alpha electrons :     1
            Beta electrons :     1
          Charge           :     0
          Spin multiplicity:     1

 HvD: wfn1_inpdft
 HvD: nquad_task =                     1
 HvD: iangquad   =                     0
 HvD: gridtype   = user      
 HvD: leb        =  T
 HvD: radgrid    = murakn    
 HvD: trunc_neigh=  T
 HvD: lssw       =  T
 HvD: whichssw   = erf1    
 HvD: mxnrad     =                     0
 HvD: mxnang     =                     0
 HVD: wfn1: movecs_in  = atomic                                                                                                                                                                                                                                                          
 HVD: wfn1: movecs_out = ./wfn1_dat.movecs                                                                                                                                                                                                                                               

      Superposition of Atomic Density Guess
      -------------------------------------

 Sum of atomic energies:          -0.99646508

      Non-variational initial energy
      ------------------------------

 Total energy =      -0.682110
 1-e energy   =      -1.173634
 2-e energy   =       0.402940
 HOMO         =      -0.191213
 LUMO         =      -0.191159

 iteration              energy           error
 ---------              ------           -----
         0         -0.86513337        0.080000
         1         -0.87174128        0.080000
         2         -0.87555429        0.080000
         3         -0.87656500        0.080000
         4         -0.87696880        0.080000
         5         -0.87938368        0.080000
         6         -0.87979749        0.080000
         7         -0.88145992        0.080000
         8         -0.88224563        0.080000
         9         -0.88599205        0.080000
        10         -0.88965584        0.080000
        11         -0.89250871        0.080000
        12         -0.89683610        0.080000
        13         -0.89957616        0.080000
        14         -0.90103159        0.080000
        15         -0.90285975        0.080000
        16         -0.90328094        0.080000
        17         -0.90360898        0.080000
        18         -0.90373518        0.080000
        19         -0.90386505        0.080000
        20         -0.90440317        0.080000
        21         -0.90526565        0.080000
        22         -0.90696499        0.080000
        23         -0.90861316        0.080000
        24         -0.91122135        0.080000
        25         -0.91129634        0.080000
        26         -0.91336957        0.080000
        27         -0.91625340        0.080000
        28         -0.91678844        0.080000
        29         -0.91967010        0.080000
        30         -0.92020295        0.080000
        31         -0.92094174        0.080000
        32         -0.92164461        0.080000
        33         -0.92166056        0.080000
        34         -0.92373251        0.080000
        35         -0.92393846        0.080000
        36         -0.92572659        0.080000
        37         -0.92597012        0.080000
        38         -0.92598207        0.080000
        39         -0.92659018        0.080000
        40         -0.92685351        0.080000
        41         -0.92721837        0.080000
        42         -0.92743983        0.080000
        43         -0.92780050        0.080000
        44         -0.92815354        0.080000
        45         -0.92817272        0.080000
        46         -0.92844559        0.080000
        47         -0.92857213        0.080000
        48         -0.92861817        0.080000
        49         -0.92862496        0.080000
        50         -0.92871494        0.080000
        51         -0.92874311        0.050397
        52         -0.92875082        0.050397
        53         -0.92875681        0.040000
        54         -0.92875795        0.040000
        55         -0.92876030        0.020000
        56         -0.92876313        0.020000
        57         -0.92876790        0.020000
        58         -0.92877141        0.020000
        59         -0.92877225        0.015874
        60         -0.92877233        0.015874
        61         -0.92877246        0.015874
        62         -0.92877251        0.007937
        63         -0.92877281        0.007937
        64         -0.92877307        0.007937
        65         -0.92877333        0.007937
        66         -0.92877365        0.007937
        67         -0.92877373        0.005000
        68         -0.92877376        0.002500
        69         -0.92877376        0.002500
        70         -0.92877377        0.002500
        71         -0.92877379        0.002500
        72         -0.92877382        0.001984
        73         -0.92877383        0.001984
        74         -0.92877385        0.001575
        75         -0.92877392        0.001575
        76         -0.92877393        0.001250
        77         -0.92877393        0.001250
        78         -0.92877394        0.000625
        79         -0.92877394        0.000625
        80         -0.92877395        0.000496
        81         -0.92877396        0.000496
        82         -0.92877396        0.000496
        83         -0.92877396        0.000496
        84         -0.92877398        0.000496
        85         -0.92877398        0.000496
        86         -0.92877398        0.000496
        87         -0.92877398        0.000496
        88         -0.92877398        0.000496
        89         -0.92877399        0.000496
        90         -0.92877399        0.000496
        91         -0.92877399        0.000496
        92         -0.92877399        0.000496
        93         -0.92877399        0.000496
        94         -0.92877400        0.000394
        95         -0.92877400        0.000394
        96         -0.92877400        0.000313
        97         -0.92877400        0.000313
        98         -0.92877400        0.000313
        99         -0.92877400        0.000313
       100         -0.92877400        0.000313
       101         -0.92877401        0.000313
       102         -0.92877401        0.000313
       103         -0.92877401        0.000313
       104         -0.92877401        0.000313
       105         -0.92877401        0.000313
       106         -0.92877401        0.000313
       107         -0.92877401        0.000248
       108         -0.92877401        0.000197
       109         -0.92877401        0.000197
       110         -0.92877401        0.000156
       111         -0.92877401        0.000156
       112         -0.92877401        0.000156
       113         -0.92877401        0.000124
       114         -0.92877401        0.000124
       115         -0.92877401        0.000124
       116         -0.92877401        0.000124
       117         -0.92877401        0.000124
       118         -0.92877401        0.000098
       119         -0.92877401        0.000098
       120         -0.92877401        0.000078
       121         -0.92877401        0.000078
       122         -0.92877401        0.000078
       123         -0.92877401        0.000078
       124         -0.92877401        0.000078
       125         -0.92877401        0.000078
       126         -0.92877401        0.000078
       127         -0.92877401        0.000078
       128         -0.92877401        0.000078
       129         -0.92877401        0.000078
       130         -0.92877401        0.000062
       131         -0.92877401        0.000062
       132         -0.92877401        0.000062
       133         -0.92877401        0.000049
       134         -0.92877401        0.000039
       135         -0.92877401        0.000039
       136         -0.92877401        0.000039
       137         -0.92877401        0.000039
       138         -0.92877401        0.000039
       139         -0.92877401        0.000031
       140         -0.92877401        0.000031
       141         -0.92877401        0.000031
       142         -0.92877401        0.000031
       143         -0.92877401        0.000031
       144         -0.92877401        0.000025
       145         -0.92877401        0.000025
       146         -0.92877401        0.000020
       147         -0.92877401        0.000020
       148         -0.92877401        0.000020
       149         -0.92877401        0.000016
       150         -0.92877401        0.000012
       151         -0.92877401        0.000010
       152         -0.92877401        0.000010
       153         -0.92877401        0.000010
       154         -0.92877401        0.000005
       155         -0.92877401        0.000005
       156         -0.92877401        0.000005
       157         -0.92877401        0.000005
       158         -0.92877401        0.000005
       159         -0.92877401        0.000004
       160         -0.92877401        0.000002
       161         -0.92877401        0.000002
       162         -0.92877401        0.000002
       163         -0.92877401        0.000002
       164         -0.92877401        0.000001
       165         -0.92877401        0.000001

 Reached Convergence

 WFN1                     :
 --------------------------
 Total WFN1 energy  =          -0.9287740131
 1-Electron energy  =          -1.1076930623
 2-Electron energy  =           0.3399625267
 Correlation energy =          -0.2496276996
 DFT XC energy      =           0.0000000000
 Entropy energy     =           0.0000000000
 Nuclear energy     =           0.0885842222

 conventional Hartree-Fock:
 --------------------------
 Total SCF energy  =          -0.8705343077
 2-Electron energy =           0.3982022320

                WFN1 Final Natural orbital energies and occupations
                ---------------------------------------------------

              Alpha       Beta            Alpha       Beta  
            --------    --------        --------    --------
       1      0.0000      0.0000          0.4843      0.4843
       2      0.0000      0.0000          0.4841      0.4841
       3      0.0000      0.0000          0.0158      0.0158
       4      0.0000      0.0000          0.0158      0.0158

             WFN1 Final Correlation function energies and occupations
             --------------------------------------------------------

              Alpha       Beta            Alpha       Beta  
            --------    --------        --------    --------
       1      0.0000      0.0000          1.0000      1.0000
       2      0.0000      0.0000          0.0000      0.0000
       3      0.0000      0.0000          0.0000      0.0000
       4      0.0000      0.0000          0.0000      0.0000

                WFN1 Final alpha-alpha 2-matrix occupation numbers
                --------------------------------------------------


 global array: g_momo1[1:4,1:4],  handle: -990 

            1           2           3           4  
       ----------- ----------- ----------- -----------
   1       0.00000     0.00000     0.00000    -0.00000
   2       0.00000     0.00000     0.00000    -0.00000
   3       0.00000     0.00000     0.00000    -0.00000
   4      -0.00000     0.00000     0.00000     0.00000

                 WFN1 Final beta-beta 2-matrix occupation numbers
                 ------------------------------------------------


 global array: g_momo2[1:4,1:4],  handle: -989 

            1           2           3           4  
       ----------- ----------- ----------- -----------
   1       0.00000     0.00000     0.00000    -0.00000
   2       0.00000     0.00000     0.00000    -0.00000
   3       0.00000     0.00000     0.00000    -0.00000
   4      -0.00000     0.00000     0.00000     0.00000

                  WFN1 Final alpha Correlation Function Analysis
                  ----------------------------------------------


 global array: Ca[1:4,1:4],  handle: -977 

                     1                       2                       3                       4  
       ----------------------- ----------------------- ----------------------- -----------------------
   1      -0.37071,    0.58897    -0.37100,    0.60115    -0.04157,   -0.06723    -0.09107,    0.04607
   2      -0.43048,   -0.54657     0.43211,    0.55798     0.10114,    0.03588     0.03048,   -0.07373
   3       0.12322,    0.02527    -0.01104,    0.05050     0.11818,   -0.67613     0.12999,   -0.70249
   4       0.09776,    0.07911    -0.01252,    0.00894     0.57018,    0.43129    -0.55814,   -0.40163

                   WFN1 Final beta Correlation Function Analysis
                   ---------------------------------------------


 global array: Cb[1:4,1:4],  handle: -976 

                     1                       2                       3                       4  
       ----------------------- ----------------------- ----------------------- -----------------------
   1      -0.37071,    0.58897    -0.37100,    0.60115    -0.04157,   -0.06723    -0.09107,    0.04607
   2      -0.43048,   -0.54657     0.43211,    0.55798     0.10114,    0.03588     0.03048,   -0.07373
   3       0.12322,    0.02527    -0.01104,    0.05050     0.11818,   -0.67613     0.12999,   -0.70249
   4       0.09776,    0.07911    -0.01252,    0.00894     0.57018,    0.43129    -0.55814,   -0.40163

                     WFN1 Final Alpha Natural Orbital Analysis
                     -----------------------------------------

 Vector    1  Occ=4.843115D-01  E= 0.000000D+00
              MO Center=  0.0D+00,  0.0D+00,  1.9D-07, r^2= 9.8D+00
   Bfn.  Coefficient  Atom+Function         Bfn.  Coefficient  Atom+Function  
  ----- ------------  ---------------      ----- ------------  ---------------
     2     -0.513830  1 H  s                  4     -0.513830  2 H  s          
     1     -0.253681  1 H  s                  3     -0.253681  2 H  s          

 Vector    2  Occ=4.840509D-01  E= 0.000000D+00
              MO Center=  0.0D+00,  0.0D+00, -1.9D-07, r^2= 9.8D+00
   Bfn.  Coefficient  Atom+Function         Bfn.  Coefficient  Atom+Function  
  ----- ------------  ---------------      ----- ------------  ---------------
     2      0.513767  1 H  s                  4     -0.513767  2 H  s          
     1      0.253769  1 H  s                  3     -0.253769  2 H  s          

 Vector    3  Occ=1.582190D-02  E= 0.000000D+00
              MO Center=  0.0D+00,  0.0D+00,  3.0D-06, r^2= 1.0D+01
   Bfn.  Coefficient  Atom+Function         Bfn.  Coefficient  Atom+Function  
  ----- ------------  ---------------      ----- ------------  ---------------
     1     -0.904433  1 H  s                  3     -0.904434  2 H  s          
     2      0.786321  1 H  s                  4      0.786322  2 H  s          

 Vector    4  Occ=1.581572D-02  E= 0.000000D+00
              MO Center=  0.0D+00,  0.0D+00, -3.0D-06, r^2= 1.0D+01
   Bfn.  Coefficient  Atom+Function         Bfn.  Coefficient  Atom+Function  
  ----- ------------  ---------------      ----- ------------  ---------------
     1     -0.904434  1 H  s                  3      0.904434  2 H  s          
     2      0.786431  1 H  s                  4     -0.786430  2 H  s          


                     WFN1 Final Beta Natural Orbital Analysis
                     ----------------------------------------

 Vector    1  Occ=4.843115D-01  E= 0.000000D+00
              MO Center=  0.0D+00,  0.0D+00,  1.9D-07, r^2= 9.8D+00
   Bfn.  Coefficient  Atom+Function         Bfn.  Coefficient  Atom+Function  
  ----- ------------  ---------------      ----- ------------  ---------------
     2     -0.513830  1 H  s                  4     -0.513830  2 H  s          
     1     -0.253681  1 H  s                  3     -0.253681  2 H  s          

 Vector    2  Occ=4.840509D-01  E= 0.000000D+00
              MO Center=  0.0D+00,  0.0D+00, -1.9D-07, r^2= 9.8D+00
   Bfn.  Coefficient  Atom+Function         Bfn.  Coefficient  Atom+Function  
  ----- ------------  ---------------      ----- ------------  ---------------
     2      0.513767  1 H  s                  4     -0.513767  2 H  s          
     1      0.253769  1 H  s                  3     -0.253769  2 H  s          

 Vector    3  Occ=1.582190D-02  E= 0.000000D+00
              MO Center=  0.0D+00,  0.0D+00,  3.0D-06, r^2= 1.0D+01
   Bfn.  Coefficient  Atom+Function         Bfn.  Coefficient  Atom+Function  
  ----- ------------  ---------------      ----- ------------  ---------------
     1     -0.904433  1 H  s                  3     -0.904434  2 H  s          
     2      0.786321  1 H  s                  4      0.786322  2 H  s          

 Vector    4  Occ=1.581572D-02  E= 0.000000D+00
              MO Center=  0.0D+00,  0.0D+00, -3.0D-06, r^2= 1.0D+01
   Bfn.  Coefficient  Atom+Function         Bfn.  Coefficient  Atom+Function  
  ----- ------------  ---------------      ----- ------------  ---------------
     1     -0.904434  1 H  s                  3      0.904434  2 H  s          
     2      0.786431  1 H  s                  4     -0.786430  2 H  s          


 Task  times  cpu:        7.2s     wall:        9.8s
 Summary of allocated global arrays
-----------------------------------
  No active global arrays



                         GA Statistics for process    0
                         ------------------------------

       create   destroy   get      put      acc     scatter   gather  read&inc
calls:   44       44     5.88e+06 1.25e+04 1.62e+04    0        0       10     
number of processes/call 1.00e+00 1.00e+00 1.00e+00 0.00e+00 0.00e+00
bytes total:             7.56e+08 2.06e+06 2.57e+06 0.00e+00 0.00e+00 8.00e+01
bytes remote:            0.00e+00 0.00e+00 0.00e+00 0.00e+00 0.00e+00 0.00e+00
Max memory consumed for GA by this process: 10624 bytes
MA_summarize_allocated_blocks: starting scan ...
MA_summarize_allocated_blocks: scan completed: 0 heap blocks, 0 stack blocks
MA usage statistics:

	allocation statistics:
					      heap	     stack
					      ----	     -----
	current number of blocks	         0	         0
	maximum number of blocks	        19	        17
	current total bytes		         0	         0
	maximum total bytes		   3204344	  22508664
	maximum total K-bytes		      3205	     22509
	maximum total M-bytes		         4	        23


                                NWChem Input Module
                                -------------------





                                     CITATION
                                     --------
                Please cite the following reference when publishing
                           results obtained with NWChem:

                 M. Valiev, E.J. Bylaska, N. Govind, K. Kowalski,
              T.P. Straatsma, H.J.J. van Dam, D. Wang, J. Nieplocha,
                        E. Apra, T.L. Windus, W.A. de Jong
                 "NWChem: a comprehensive and scalable open-source
                  solution for large scale molecular simulations"
                      Comput. Phys. Commun. 181, 1477 (2010)
                           doi:10.1016/j.cpc.2010.04.018

                                      AUTHORS
                                      -------
          E. Apra, E. J. Bylaska, W. A. de Jong, N. Govind, K. Kowalski,
       T. P. Straatsma, M. Valiev, H. J. J. van Dam, D. Wang, T. L. Windus,
        J. Hammond, J. Autschbach, K. Bhaskaran-Nair, J. Brabec, K. Lopata,
    S. A. Fischer, S. Krishnamoorthy, M. Jacquelin, W. Ma, M. Klemm, O. Villa,
      Y. Chen, V. Anisimov, F. Aquino, S. Hirata, M. T. Hackler, V. Konjkov,
      T. Risthaus, M. Malagoli, A. Marenich, A. Otero-de-la-Roza, J. Mullin,
        P. Nichols, R. Peverati, J. Pittner, Y. Zhao, P.-D. Fan, A. Fonari,
       M. Williamson, R. J. Harrison, J. R. Rehr, M. Dupuis, D. Silverstein,
    D. M. A. Smith, J. Nieplocha, V. Tipparaju, M. Krishnan, B. E. Van Kuiken,
        A. Vazquez-Mayagoitia, L. Jensen, M. Swart, Q. Wu, T. Van Voorhis,
     A. A. Auer, M. Nooijen, L. D. Crosby, E. Brown, G. Cisneros, G. I. Fann,
   H. Fruchtl, J. Garza, K. Hirao, R. A. Kendall, J. A. Nichols, K. Tsemekhman,
    K. Wolinski, J. Anchell, D. E. Bernholdt, P. Borowski, T. Clark, D. Clerc,
   H. Dachsel, M. J. O. Deegan, K. Dyall, D. Elwood, E. Glendening, M. Gutowski,
   A. C. Hess, J. Jaffe, B. G. Johnson, J. Ju, R. Kobayashi, R. Kutteh, Z. Lin,
   R. Littlefield, X. Long, B. Meng, T. Nakajima, S. Niu, L. Pollack, M. Rosing,
   K. Glaesemann, G. Sandrone, M. Stave, H. Taylor, G. Thomas, J. H. van Lenthe,
                               A. T. Wong, Z. Zhang.

 Total times  cpu:        7.2s     wall:        9.9s
