 argument  1 = input-wf.nw



============================== echo of input deck ==============================
echo
start wfn1_dat
geometry units au noautoz
  H 0 0 -2.84434600000000000000
  H 0 0  2.84434600000000000000
  symmetry cs
end
basis
  H library 6-31g
end
set wfn1:input_vectors "atomic"
set wfn1:solver "monte-carlo"
set wfn1:print_error F
set wfn1:t_initial 0.1
#set wfn1:corr_expr "wfn1_mx"
set wfn1:corr_expr "wfn1c"
set wfn1:t_bath 0.0
set wfn1:maxit  20000
task wfn1 energy
================================================================================


                                         
                                         


              Northwest Computational Chemistry Package (NWChem) 6.8
              ------------------------------------------------------


                    Environmental Molecular Sciences Laboratory
                       Pacific Northwest National Laboratory
                                Richland, WA 99352

                              Copyright (c) 1994-2015
                       Pacific Northwest National Laboratory
                            Battelle Memorial Institute

             NWChem is an open-source computational chemistry package
                        distributed under the terms of the
                      Educational Community License (ECL) 2.0
             A copy of the license is included with this distribution
                              in the LICENSE.TXT file

                                  ACKNOWLEDGMENT
                                  --------------

            This software and its documentation were developed at the
            EMSL at Pacific Northwest National Laboratory, a multiprogram
            national laboratory, operated for the U.S. Department of Energy
            by Battelle under Contract Number DE-AC05-76RL01830. Support
            for this work was provided by the Department of Energy Office
            of Biological and Environmental Research, Office of Basic
            Energy Sciences, and the Office of Advanced Scientific Computing.


           Job information
           ---------------

    hostname        = erato
    program         = ../../../bin/LINUX64/nwchem
    date            = Mon Mar  1 01:43:14 2021

    compiled        = Sun_Feb_28_18:02:42_2021
    source          = /home/hvandam/nwchem-1-wfn1
    nwchem branch   = Development
    nwchem revision = nwchem_on_git-124-gad72d19fff205e319ffbbf2bca37a04ded6ad57b
    ga revision     = nwchem_on_git-124-gad72d19
    use scalapack   = F
    input           = input-wf.nw
    prefix          = wfn1_dat.
    data base       = ./wfn1_dat.db
    status          = startup
    nproc           =        1
    time left       =     -1s



           Memory information
           ------------------

    heap     =   13107200 doubles =    100.0 Mbytes
    stack    =   13107197 doubles =    100.0 Mbytes
    global   =   26214400 doubles =    200.0 Mbytes (distinct from heap & stack)
    total    =   52428797 doubles =    400.0 Mbytes
    verify   = yes
    hardfail = no 


           Directory information
           ---------------------

  0 permanent = .
  0 scratch   = .




                                NWChem Input Module
                                -------------------


 Turning off AUTOSYM since
 SYMMETRY directive was detected!



                             Geometry "geometry" -> ""
                             -------------------------

 Output coordinates in a.u. (scale by  1.000000000 to convert to a.u.)

  No.       Tag          Charge          X              Y              Z
 ---- ---------------- ---------- -------------- -------------- --------------
    1 H                    1.0000     0.00000000     0.00000000    -2.84434600
    2 H                    1.0000     0.00000000     0.00000000     2.84434600

      Atomic Mass 
      ----------- 

      H                  1.007825


 Effective nuclear repulsion energy (a.u.)       0.1757873339

            Nuclear Dipole moment (a.u.) 
            ----------------------------
        X                 Y               Z
 ---------------- ---------------- ----------------
     0.0000000000     0.0000000000     0.0000000000

      Symmetry information
      --------------------

 Group name             Cs        
 Group number              2
 Group order               2
 No. of unique centers     1

      Symmetry unique atoms

     1


            XYZ format geometry
            -------------------
     2
 geometry
 H                     0.00000000     0.00000000    -1.50516319
 H                     0.00000000     0.00000000     1.50516319

                      Basis "ao basis" -> "" (cartesian)
                      -----
  H (Hydrogen)
  ------------
            Exponent  Coefficients 
       -------------- ---------------------------------------------------------
  1 S  1.87311370E+01  0.033495
  1 S  2.82539370E+00  0.234727
  1 S  6.40121700E-01  0.813757

  2 S  1.61277800E-01  1.000000



 Summary of "ao basis" -> "" (cartesian)
 ------------------------------------------------------------------------------
       Tag                 Description            Shells   Functions and Types
 ---------------- ------------------------------  ------  ---------------------
 H                           6-31g                   2        2   2s



                                NWChem WFN1 Module
                                ------------------



          No. of electrons :     2
           Alpha electrons :     1
            Beta electrons :     1
          Charge           :     0
          Spin multiplicity:     1

 HvD: wfn1_inpdft
 HvD: nquad_task =                     1
 HvD: iangquad   =                     0
 HvD: gridtype   = user      
 HvD: leb        =  T
 HvD: radgrid    = murakn    
 HvD: trunc_neigh=  T
 HvD: lssw       =  T
 HvD: whichssw   = erf1    
 HvD: mxnrad     =                     0
 HvD: mxnang     =                     0
 HVD: wfn1: movecs_in  = atomic                                                                                                                                                                                                                                                          
 HVD: wfn1: movecs_out = ./wfn1_dat.movecs                                                                                                                                                                                                                                               

      Superposition of Atomic Density Guess
      -------------------------------------

 Sum of atomic energies:          -0.99646508

      Non-variational initial energy
      ------------------------------

 Total energy =      -0.682484
 1-e energy   =      -1.348040
 2-e energy   =       0.489768
 HOMO         =      -0.209438
 LUMO         =      -0.172164

 iteration              energy           error
 ---------              ------           -----
         0         -0.88977902        0.080000
         1         -0.89316272        0.080000
         2         -0.89465792        0.080000
         3         -0.90047036        0.080000
         4         -0.90197119        0.080000
         5         -0.90453552        0.080000
         6         -0.90611280        0.080000
         7         -0.90715573        0.080000
         8         -0.90903369        0.080000
         9         -0.91358931        0.080000
        10         -0.91488448        0.080000
        11         -0.91852208        0.080000
        12         -0.91999003        0.080000
        13         -0.92129618        0.080000
        14         -0.92142108        0.080000
        15         -0.92354836        0.080000
        16         -0.92557393        0.080000
        17         -0.92572692        0.080000
        18         -0.92858004        0.080000
        19         -0.92993091        0.080000
        20         -0.93117004        0.080000
        21         -0.93269614        0.080000
        22         -0.93369110        0.080000
        23         -0.93637188        0.080000
        24         -0.93939839        0.080000
        25         -0.94020756        0.080000
        26         -0.94405904        0.080000
        27         -0.94435231        0.080000
        28         -0.94486249        0.080000
        29         -0.94503843        0.080000
        30         -0.94735292        0.080000
        31         -0.94816146        0.080000
        32         -0.94888905        0.080000
        33         -0.94948363        0.080000
        34         -0.95189776        0.080000
        35         -0.95301371        0.080000
        36         -0.95349126        0.080000
        37         -0.95394634        0.080000
        38         -0.95433193        0.080000
        39         -0.95479048        0.080000
        40         -0.95537239        0.080000
        41         -0.95583142        0.080000
        42         -0.95620622        0.080000
        43         -0.95632466        0.080000
        44         -0.95633433        0.080000
        45         -0.95641536        0.080000
        46         -0.95642160        0.080000
        47         -0.95657121        0.080000
        48         -0.95659647        0.080000
        49         -0.95691254        0.080000
        50         -0.95693773        0.080000
        51         -0.95697101        0.063496
        52         -0.95703126        0.063496
        53         -0.95707432        0.063496
        54         -0.95708451        0.063496
        55         -0.95710472        0.063496
        56         -0.95717188        0.063496
        57         -0.95717472        0.050397
        58         -0.95722315        0.050397
        59         -0.95722531        0.050397
        60         -0.95723874        0.040000
        61         -0.95725675        0.040000
        62         -0.95726026        0.031748
        63         -0.95726342        0.025198
        64         -0.95726663        0.025198
        65         -0.95727455        0.025198
        66         -0.95727756        0.025198
        67         -0.95727961        0.020000
        68         -0.95728333        0.020000
        69         -0.95728506        0.020000
        70         -0.95728573        0.015874
        71         -0.95728817        0.015874
        72         -0.95728875        0.015874
        73         -0.95729140        0.015874
        74         -0.95729151        0.015874
        75         -0.95729467        0.015874
        76         -0.95729498        0.015874
        77         -0.95729694        0.015874
        78         -0.95729890        0.015874
        79         -0.95730002        0.010000
        80         -0.95730339        0.010000
        81         -0.95730354        0.010000
        82         -0.95730372        0.010000
        83         -0.95730484        0.010000
        84         -0.95730575        0.010000
        85         -0.95730897        0.010000
        86         -0.95730905        0.007937
        87         -0.95730962        0.007937
        88         -0.95731039        0.007937
        89         -0.95731053        0.006300
        90         -0.95731059        0.003969
        91         -0.95731082        0.003969
        92         -0.95731119        0.003969
        93         -0.95731136        0.003969
        94         -0.95731137        0.003969
        95         -0.95731159        0.003150
        96         -0.95731161        0.002500
        97         -0.95731166        0.002500
        98         -0.95731168        0.002500
        99         -0.95731169        0.002500
       100         -0.95731169        0.002500
       101         -0.95731176        0.002500
       102         -0.95731183        0.002500
       103         -0.95731185        0.002500
       104         -0.95731185        0.002500
       105         -0.95731194        0.002500
       106         -0.95731203        0.002500
       107         -0.95731207        0.002500
       108         -0.95731209        0.001575
       109         -0.95731214        0.001575
       110         -0.95731215        0.001575
       111         -0.95731215        0.001575
       112         -0.95731216        0.001575
       113         -0.95731216        0.001575
       114         -0.95731218        0.000992
       115         -0.95731219        0.000992
       116         -0.95731220        0.000992
       117         -0.95731221        0.000992
       118         -0.95731221        0.000787
       119         -0.95731221        0.000787
       120         -0.95731222        0.000787
       121         -0.95731223        0.000625
       122         -0.95731223        0.000625
       123         -0.95731223        0.000496
       124         -0.95731223        0.000496
       125         -0.95731223        0.000394
       126         -0.95731223        0.000394
       127         -0.95731223        0.000394
       128         -0.95731223        0.000313
       129         -0.95731224        0.000248
       130         -0.95731224        0.000197
       131         -0.95731224        0.000197
       132         -0.95731224        0.000197
       133         -0.95731224        0.000156
       134         -0.95731224        0.000124
       135         -0.95731224        0.000098
       136         -0.95731224        0.000098
       137         -0.95731224        0.000098
       138         -0.95731224        0.000098
       139         -0.95731224        0.000098
       140         -0.95731224        0.000098
       141         -0.95731224        0.000098
       142         -0.95731224        0.000098
       143         -0.95731224        0.000098
       144         -0.95731224        0.000062
       145         -0.95731224        0.000062
       146         -0.95731224        0.000062
       147         -0.95731224        0.000049
       148         -0.95731224        0.000049
       149         -0.95731224        0.000049
       150         -0.95731224        0.000039
       151         -0.95731224        0.000031
       152         -0.95731224        0.000025
       153         -0.95731224        0.000025
       154         -0.95731224        0.000025
       155         -0.95731224        0.000025
       156         -0.95731224        0.000025
       157         -0.95731224        0.000025
       158         -0.95731224        0.000025
       159         -0.95731224        0.000020
       160         -0.95731224        0.000020
       161         -0.95731224        0.000020
       162         -0.95731224        0.000012
       163         -0.95731224        0.000012
       164         -0.95731224        0.000012
       165         -0.95731224        0.000012
       166         -0.95731224        0.000012
       167         -0.95731224        0.000012
       168         -0.95731224        0.000012
       169         -0.95731224        0.000010
       170         -0.95731224        0.000010
       171         -0.95731224        0.000010
       172         -0.95731224        0.000010
       173         -0.95731224        0.000010
       174         -0.95731224        0.000010
       175         -0.95731224        0.000010
       176         -0.95731224        0.000010
       177         -0.95731224        0.000010
       178         -0.95731224        0.000008
       179         -0.95731224        0.000008
       180         -0.95731224        0.000008
       181         -0.95731224        0.000008
       182         -0.95731224        0.000006
       183         -0.95731224        0.000006
       184         -0.95731224        0.000006
       185         -0.95731224        0.000006
       186         -0.95731224        0.000006
       187         -0.95731224        0.000006
       188         -0.95731224        0.000005
       189         -0.95731224        0.000005
       190         -0.95731224        0.000005
       191         -0.95731224        0.000004
       192         -0.95731224        0.000004
       193         -0.95731224        0.000004
       194         -0.95731224        0.000003
       195         -0.95731224        0.000003
       196         -0.95731224        0.000003
       197         -0.95731224        0.000002
       198         -0.95731224        0.000002
       199         -0.95731224        0.000002
       200         -0.95731224        0.000002
       201         -0.95731224        0.000002
       202         -0.95731224        0.000002
       203         -0.95731224        0.000002
       204         -0.95731224        0.000002
       205         -0.95731224        0.000002
       206         -0.95731224        0.000002
       207         -0.95731224        0.000002
       208         -0.95731224        0.000002
       209         -0.95731224        0.000002
       210         -0.95731224        0.000002
       211         -0.95731224        0.000001
       212         -0.95731224        0.000001
       213         -0.95731224        0.000001
       214         -0.95731224        0.000001

 Reached Convergence

 WFN1                     :
 --------------------------
 Total WFN1 energy  =          -0.9573122374
 1-Electron energy  =          -1.2811423112
 2-Electron energy  =           0.3828270036
 Correlation energy =          -0.2347842637
 DFT XC energy      =           0.0000000000
 Entropy energy     =           0.0000000000
 Nuclear energy     =           0.1757873339

 conventional Hartree-Fock:
 --------------------------
 Total SCF energy  =          -0.8568391462
 2-Electron energy =           0.4833000948

                WFN1 Final Natural orbital energies and occupations
                ---------------------------------------------------

              Alpha       Beta            Alpha       Beta  
            --------    --------        --------    --------
       1      0.0000      0.0000          0.5604      0.5604
       2      0.0000      0.0000          0.4060      0.4060
       3      0.0000      0.0000          0.0187      0.0187
       4      0.0000      0.0000          0.0149      0.0149

             WFN1 Final Correlation function energies and occupations
             --------------------------------------------------------

              Alpha       Beta            Alpha       Beta  
            --------    --------        --------    --------
       1      0.0000      0.0000          1.0000      1.0000
       2      0.0000      0.0000          0.0000      0.0000
       3      0.0000      0.0000          0.0000      0.0000
       4      0.0000      0.0000          0.0000      0.0000

                WFN1 Final alpha-alpha 2-matrix occupation numbers
                --------------------------------------------------


 global array: g_momo1[1:4,1:4],  handle: -990 

            1           2           3           4  
       ----------- ----------- ----------- -----------
   1       0.00000    -0.00000    -0.00000     0.00000
   2       0.00000     0.00000    -0.00000     0.00000
   3      -0.00000     0.00000     0.00000     0.00000
   4       0.00000     0.00000     0.00000     0.00000

                 WFN1 Final beta-beta 2-matrix occupation numbers
                 ------------------------------------------------


 global array: g_momo2[1:4,1:4],  handle: -989 

            1           2           3           4  
       ----------- ----------- ----------- -----------
   1       0.00000    -0.00000    -0.00000     0.00000
   2       0.00000     0.00000    -0.00000     0.00000
   3      -0.00000     0.00000     0.00000     0.00000
   4       0.00000     0.00000     0.00000     0.00000

                  WFN1 Final alpha Correlation Function Analysis
                  ----------------------------------------------


 global array: Ca[1:4,1:4],  handle: -981 

                     1                       2                       3                       4  
       ----------------------- ----------------------- ----------------------- -----------------------
   1       0.33808,   -0.66792     0.30994,   -0.57252    -0.07090,   -0.09433     0.01726,   -0.03898
   2       0.33597,    0.54141    -0.39487,   -0.64483     0.11261,   -0.09053     0.03750,   -0.00094
   3      -0.13647,   -0.00592     0.01906,    0.03411     0.02637,   -0.82912     0.02810,    0.53934
   4       0.03890,   -0.11582    -0.05377,    0.00442     0.36871,    0.37565     0.64639,    0.53598

                   WFN1 Final beta Correlation Function Analysis
                   ---------------------------------------------


 global array: Cb[1:4,1:4],  handle: -980 

                     1                       2                       3                       4  
       ----------------------- ----------------------- ----------------------- -----------------------
   1       0.33808,   -0.66792     0.30994,   -0.57252    -0.07090,   -0.09433     0.01726,   -0.03898
   2       0.33597,    0.54141    -0.39487,   -0.64483     0.11261,   -0.09053     0.03750,   -0.00094
   3      -0.13647,   -0.00592     0.01906,    0.03411     0.02637,   -0.82912     0.02810,    0.53934
   4       0.03890,   -0.11582    -0.05377,    0.00442     0.36871,    0.37565     0.64639,    0.53598

                     WFN1 Final Alpha Natural Orbital Analysis
                     -----------------------------------------

 Vector    1  Occ=5.604188D-01  E= 0.000000D+00
              MO Center=  0.0D+00,  0.0D+00, -1.2D-08, r^2= 3.1D+00
   Bfn.  Coefficient  Atom+Function         Bfn.  Coefficient  Atom+Function  
  ----- ------------  ---------------      ----- ------------  ---------------
     2     -0.511979  1 H  s                  4     -0.511979  2 H  s          
     1     -0.237302  1 H  s                  3     -0.237302  2 H  s          

 Vector    2  Occ=4.059945D-01  E= 0.000000D+00
              MO Center=  0.0D+00,  0.0D+00, -3.2D-08, r^2= 3.2D+00
   Bfn.  Coefficient  Atom+Function         Bfn.  Coefficient  Atom+Function  
  ----- ------------  ---------------      ----- ------------  ---------------
     2     -0.512825  1 H  s                  4      0.512826  2 H  s          
     1     -0.273153  1 H  s                  3      0.273152  2 H  s          

 Vector    3  Occ=1.866030D-02  E= 0.000000D+00
              MO Center=  0.0D+00,  0.0D+00, -2.2D-06, r^2= 3.2D+00
   Bfn.  Coefficient  Atom+Function         Bfn.  Coefficient  Atom+Function  
  ----- ------------  ---------------      ----- ------------  ---------------
     1     -0.893894  1 H  s                  3     -0.893893  2 H  s          
     2      0.731191  1 H  s                  4      0.731189  2 H  s          

 Vector    4  Occ=1.492645D-02  E= 0.000000D+00
              MO Center=  0.0D+00,  0.0D+00,  2.3D-06, r^2= 3.7D+00
   Bfn.  Coefficient  Atom+Function         Bfn.  Coefficient  Atom+Function  
  ----- ------------  ---------------      ----- ------------  ---------------
     1      0.917396  1 H  s                  3     -0.917397  2 H  s          
     2     -0.852040  1 H  s                  4      0.852041  2 H  s          


                     WFN1 Final Beta Natural Orbital Analysis
                     ----------------------------------------

 Vector    1  Occ=5.604188D-01  E= 0.000000D+00
              MO Center=  0.0D+00,  0.0D+00, -1.2D-08, r^2= 3.1D+00
   Bfn.  Coefficient  Atom+Function         Bfn.  Coefficient  Atom+Function  
  ----- ------------  ---------------      ----- ------------  ---------------
     2     -0.511979  1 H  s                  4     -0.511979  2 H  s          
     1     -0.237302  1 H  s                  3     -0.237302  2 H  s          

 Vector    2  Occ=4.059945D-01  E= 0.000000D+00
              MO Center=  0.0D+00,  0.0D+00, -3.2D-08, r^2= 3.2D+00
   Bfn.  Coefficient  Atom+Function         Bfn.  Coefficient  Atom+Function  
  ----- ------------  ---------------      ----- ------------  ---------------
     2     -0.512825  1 H  s                  4      0.512826  2 H  s          
     1     -0.273153  1 H  s                  3      0.273152  2 H  s          

 Vector    3  Occ=1.866030D-02  E= 0.000000D+00
              MO Center=  0.0D+00,  0.0D+00, -2.2D-06, r^2= 3.2D+00
   Bfn.  Coefficient  Atom+Function         Bfn.  Coefficient  Atom+Function  
  ----- ------------  ---------------      ----- ------------  ---------------
     1     -0.893894  1 H  s                  3     -0.893893  2 H  s          
     2      0.731191  1 H  s                  4      0.731189  2 H  s          

 Vector    4  Occ=1.492645D-02  E= 0.000000D+00
              MO Center=  0.0D+00,  0.0D+00,  2.3D-06, r^2= 3.7D+00
   Bfn.  Coefficient  Atom+Function         Bfn.  Coefficient  Atom+Function  
  ----- ------------  ---------------      ----- ------------  ---------------
     1      0.917396  1 H  s                  3     -0.917397  2 H  s          
     2     -0.852040  1 H  s                  4      0.852041  2 H  s          


 Task  times  cpu:       13.7s     wall:       23.7s
 Summary of allocated global arrays
-----------------------------------
  No active global arrays



                         GA Statistics for process    0
                         ------------------------------

       create   destroy   get      put      acc     scatter   gather  read&inc
calls:   44       44     7.41e+06 1.56e+04 2.03e+04    0        0       11     
number of processes/call 1.00e+00 1.00e+00 1.00e+00 0.00e+00 0.00e+00
bytes total:             9.52e+08 2.60e+06 3.24e+06 0.00e+00 0.00e+00 8.80e+01
bytes remote:            0.00e+00 0.00e+00 0.00e+00 0.00e+00 0.00e+00 0.00e+00
Max memory consumed for GA by this process: 10624 bytes
MA_summarize_allocated_blocks: starting scan ...
MA_summarize_allocated_blocks: scan completed: 0 heap blocks, 0 stack blocks
MA usage statistics:

	allocation statistics:
					      heap	     stack
					      ----	     -----
	current number of blocks	         0	         0
	maximum number of blocks	        19	        17
	current total bytes		         0	         0
	maximum total bytes		   3204328	  22508616
	maximum total K-bytes		      3205	     22509
	maximum total M-bytes		         4	        23


                                NWChem Input Module
                                -------------------





                                     CITATION
                                     --------
                Please cite the following reference when publishing
                           results obtained with NWChem:

                 M. Valiev, E.J. Bylaska, N. Govind, K. Kowalski,
              T.P. Straatsma, H.J.J. van Dam, D. Wang, J. Nieplocha,
                        E. Apra, T.L. Windus, W.A. de Jong
                 "NWChem: a comprehensive and scalable open-source
                  solution for large scale molecular simulations"
                      Comput. Phys. Commun. 181, 1477 (2010)
                           doi:10.1016/j.cpc.2010.04.018

                                      AUTHORS
                                      -------
          E. Apra, E. J. Bylaska, W. A. de Jong, N. Govind, K. Kowalski,
       T. P. Straatsma, M. Valiev, H. J. J. van Dam, D. Wang, T. L. Windus,
        J. Hammond, J. Autschbach, K. Bhaskaran-Nair, J. Brabec, K. Lopata,
    S. A. Fischer, S. Krishnamoorthy, M. Jacquelin, W. Ma, M. Klemm, O. Villa,
      Y. Chen, V. Anisimov, F. Aquino, S. Hirata, M. T. Hackler, V. Konjkov,
      T. Risthaus, M. Malagoli, A. Marenich, A. Otero-de-la-Roza, J. Mullin,
        P. Nichols, R. Peverati, J. Pittner, Y. Zhao, P.-D. Fan, A. Fonari,
       M. Williamson, R. J. Harrison, J. R. Rehr, M. Dupuis, D. Silverstein,
    D. M. A. Smith, J. Nieplocha, V. Tipparaju, M. Krishnan, B. E. Van Kuiken,
        A. Vazquez-Mayagoitia, L. Jensen, M. Swart, Q. Wu, T. Van Voorhis,
     A. A. Auer, M. Nooijen, L. D. Crosby, E. Brown, G. Cisneros, G. I. Fann,
   H. Fruchtl, J. Garza, K. Hirao, R. A. Kendall, J. A. Nichols, K. Tsemekhman,
    K. Wolinski, J. Anchell, D. E. Bernholdt, P. Borowski, T. Clark, D. Clerc,
   H. Dachsel, M. J. O. Deegan, K. Dyall, D. Elwood, E. Glendening, M. Gutowski,
   A. C. Hess, J. Jaffe, B. G. Johnson, J. Ju, R. Kobayashi, R. Kutteh, Z. Lin,
   R. Littlefield, X. Long, B. Meng, T. Nakajima, S. Niu, L. Pollack, M. Rosing,
   K. Glaesemann, G. Sandrone, M. Stave, H. Taylor, G. Thomas, J. H. van Lenthe,
                               A. T. Wong, Z. Zhang.

 Total times  cpu:       13.7s     wall:       23.7s
