 argument  1 = input-wf.nw



============================== echo of input deck ==============================
echo
start wfn1_dat
geometry units au noautoz
  H 0 0 -5.34434600000000000000
  H 0 0  5.34434600000000000000
  symmetry cs
end
basis
  H library 6-31g
end
set wfn1:input_vectors "atomic"
set wfn1:solver "monte-carlo"
set wfn1:print_error F
set wfn1:t_initial 0.1
#set wfn1:corr_expr "wfn1_mx"
set wfn1:corr_expr "wfn1c"
set wfn1:t_bath 0.0
set wfn1:maxit  20000
task wfn1 energy
================================================================================


                                         
                                         


              Northwest Computational Chemistry Package (NWChem) 6.8
              ------------------------------------------------------


                    Environmental Molecular Sciences Laboratory
                       Pacific Northwest National Laboratory
                                Richland, WA 99352

                              Copyright (c) 1994-2015
                       Pacific Northwest National Laboratory
                            Battelle Memorial Institute

             NWChem is an open-source computational chemistry package
                        distributed under the terms of the
                      Educational Community License (ECL) 2.0
             A copy of the license is included with this distribution
                              in the LICENSE.TXT file

                                  ACKNOWLEDGMENT
                                  --------------

            This software and its documentation were developed at the
            EMSL at Pacific Northwest National Laboratory, a multiprogram
            national laboratory, operated for the U.S. Department of Energy
            by Battelle under Contract Number DE-AC05-76RL01830. Support
            for this work was provided by the Department of Energy Office
            of Biological and Environmental Research, Office of Basic
            Energy Sciences, and the Office of Advanced Scientific Computing.


           Job information
           ---------------

    hostname        = erato
    program         = ../../../bin/LINUX64/nwchem
    date            = Mon Mar  1 01:55:16 2021

    compiled        = Sun_Feb_28_18:02:42_2021
    source          = /home/hvandam/nwchem-1-wfn1
    nwchem branch   = Development
    nwchem revision = nwchem_on_git-124-gad72d19fff205e319ffbbf2bca37a04ded6ad57b
    ga revision     = nwchem_on_git-124-gad72d19
    use scalapack   = F
    input           = input-wf.nw
    prefix          = wfn1_dat.
    data base       = ./wfn1_dat.db
    status          = startup
    nproc           =        1
    time left       =     -1s



           Memory information
           ------------------

    heap     =   13107200 doubles =    100.0 Mbytes
    stack    =   13107197 doubles =    100.0 Mbytes
    global   =   26214400 doubles =    200.0 Mbytes (distinct from heap & stack)
    total    =   52428797 doubles =    400.0 Mbytes
    verify   = yes
    hardfail = no 


           Directory information
           ---------------------

  0 permanent = .
  0 scratch   = .




                                NWChem Input Module
                                -------------------


 Turning off AUTOSYM since
 SYMMETRY directive was detected!



                             Geometry "geometry" -> ""
                             -------------------------

 Output coordinates in a.u. (scale by  1.000000000 to convert to a.u.)

  No.       Tag          Charge          X              Y              Z
 ---- ---------------- ---------- -------------- -------------- --------------
    1 H                    1.0000     0.00000000     0.00000000    -5.34434600
    2 H                    1.0000     0.00000000     0.00000000     5.34434600

      Atomic Mass 
      ----------- 

      H                  1.007825


 Effective nuclear repulsion energy (a.u.)       0.0935568169

            Nuclear Dipole moment (a.u.) 
            ----------------------------
        X                 Y               Z
 ---------------- ---------------- ----------------
     0.0000000000     0.0000000000     0.0000000000

      Symmetry information
      --------------------

 Group name             Cs        
 Group number              2
 Group order               2
 No. of unique centers     1

      Symmetry unique atoms

     1


            XYZ format geometry
            -------------------
     2
 geometry
 H                     0.00000000     0.00000000    -2.82810631
 H                     0.00000000     0.00000000     2.82810631

                      Basis "ao basis" -> "" (cartesian)
                      -----
  H (Hydrogen)
  ------------
            Exponent  Coefficients 
       -------------- ---------------------------------------------------------
  1 S  1.87311370E+01  0.033495
  1 S  2.82539370E+00  0.234727
  1 S  6.40121700E-01  0.813757

  2 S  1.61277800E-01  1.000000



 Summary of "ao basis" -> "" (cartesian)
 ------------------------------------------------------------------------------
       Tag                 Description            Shells   Functions and Types
 ---------------- ------------------------------  ------  ---------------------
 H                           6-31g                   2        2   2s



                                NWChem WFN1 Module
                                ------------------



          No. of electrons :     2
           Alpha electrons :     1
            Beta electrons :     1
          Charge           :     0
          Spin multiplicity:     1

 HvD: wfn1_inpdft
 HvD: nquad_task =                     1
 HvD: iangquad   =                     0
 HvD: gridtype   = user      
 HvD: leb        =  T
 HvD: radgrid    = murakn    
 HvD: trunc_neigh=  T
 HvD: lssw       =  T
 HvD: whichssw   = erf1    
 HvD: mxnrad     =                     0
 HvD: mxnang     =                     0
 HVD: wfn1: movecs_in  = atomic                                                                                                                                                                                                                                                          
 HVD: wfn1: movecs_out = ./wfn1_dat.movecs                                                                                                                                                                                                                                               

      Superposition of Atomic Density Guess
      -------------------------------------

 Sum of atomic energies:          -0.99646508

      Non-variational initial energy
      ------------------------------

 Total energy =      -0.682110
 1-e energy   =      -1.183579
 2-e energy   =       0.407913
 HOMO         =      -0.191255
 LUMO         =      -0.191116

 iteration              energy           error
 ---------              ------           -----
         0         -0.86638110        0.080000
         1         -0.87332013        0.080000
         2         -0.87445061        0.080000
         3         -0.87965451        0.080000
         4         -0.88136449        0.080000
         5         -0.88412009        0.080000
         6         -0.88413088        0.080000
         7         -0.88437724        0.080000
         8         -0.88596273        0.080000
         9         -0.88736678        0.080000
        10         -0.89138615        0.080000
        11         -0.89295472        0.080000
        12         -0.89736516        0.080000
        13         -0.90307359        0.080000
        14         -0.90430173        0.080000
        15         -0.90604695        0.080000
        16         -0.90767837        0.080000
        17         -0.91034269        0.080000
        18         -0.91083127        0.080000
        19         -0.91253769        0.080000
        20         -0.91502705        0.080000
        21         -0.91576214        0.080000
        22         -0.91599464        0.080000
        23         -0.91610051        0.080000
        24         -0.91683677        0.080000
        25         -0.91836796        0.080000
        26         -0.91898400        0.080000
        27         -0.91996928        0.080000
        28         -0.92306677        0.080000
        29         -0.92354156        0.080000
        30         -0.92562672        0.080000
        31         -0.92667315        0.080000
        32         -0.92699212        0.080000
        33         -0.92706227        0.080000
        34         -0.92758205        0.080000
        35         -0.92823145        0.080000
        36         -0.92886984        0.080000
        37         -0.92950426        0.080000
        38         -0.92986792        0.080000
        39         -0.92993199        0.080000
        40         -0.92999692        0.080000
        41         -0.93002548        0.080000
        42         -0.93003109        0.080000
        43         -0.93009556        0.080000
        44         -0.93015368        0.080000
        45         -0.93018914        0.080000
        46         -0.93019751        0.080000
        47         -0.93021096        0.063496
        48         -0.93024535        0.063496
        49         -0.93025445        0.050397
        50         -0.93027851        0.040000
        51         -0.93029850        0.040000
        52         -0.93030311        0.031748
        53         -0.93030833        0.031748
        54         -0.93030965        0.025198
        55         -0.93031228        0.020000
        56         -0.93031599        0.015874
        57         -0.93031921        0.015874
        58         -0.93032042        0.015874
        59         -0.93032248        0.015874
        60         -0.93032281        0.012599
        61         -0.93032315        0.007937
        62         -0.93032329        0.007937
        63         -0.93032345        0.007937
        64         -0.93032385        0.007937
        65         -0.93032408        0.007937
        66         -0.93032454        0.007937
        67         -0.93032515        0.007937
        68         -0.93032607        0.007937
        69         -0.93032614        0.007937
        70         -0.93032635        0.006300
        71         -0.93032649        0.006300
        72         -0.93032670        0.006300
        73         -0.93032680        0.006300
        74         -0.93032701        0.006300
        75         -0.93032703        0.006300
        76         -0.93032711        0.006300
        77         -0.93032746        0.006300
        78         -0.93032752        0.006300
        79         -0.93032770        0.006300
        80         -0.93032783        0.006300
        81         -0.93032784        0.003969
        82         -0.93032786        0.003969
        83         -0.93032787        0.003969
        84         -0.93032789        0.001575
        85         -0.93032789        0.001575
        86         -0.93032795        0.001575
        87         -0.93032800        0.001575
        88         -0.93032801        0.001575
        89         -0.93032805        0.001575
        90         -0.93032806        0.001575
        91         -0.93032807        0.001250
        92         -0.93032808        0.000992
        93         -0.93032808        0.000992
        94         -0.93032809        0.000496
        95         -0.93032809        0.000496
        96         -0.93032809        0.000394
        97         -0.93032809        0.000394
        98         -0.93032809        0.000394
        99         -0.93032809        0.000394
       100         -0.93032810        0.000394
       101         -0.93032810        0.000394
       102         -0.93032810        0.000313
       103         -0.93032810        0.000248
       104         -0.93032810        0.000248
       105         -0.93032810        0.000248
       106         -0.93032810        0.000248
       107         -0.93032810        0.000248
       108         -0.93032810        0.000197
       109         -0.93032810        0.000197
       110         -0.93032810        0.000197
       111         -0.93032810        0.000197
       112         -0.93032810        0.000197
       113         -0.93032811        0.000197
       114         -0.93032811        0.000197
       115         -0.93032811        0.000197
       116         -0.93032811        0.000197
       117         -0.93032811        0.000156
       118         -0.93032811        0.000156
       119         -0.93032811        0.000156
       120         -0.93032811        0.000156
       121         -0.93032811        0.000156
       122         -0.93032811        0.000156
       123         -0.93032811        0.000156
       124         -0.93032811        0.000124
       125         -0.93032811        0.000049
       126         -0.93032811        0.000049
       127         -0.93032811        0.000049
       128         -0.93032811        0.000049
       129         -0.93032811        0.000049
       130         -0.93032811        0.000049
       131         -0.93032811        0.000049
       132         -0.93032811        0.000039
       133         -0.93032811        0.000020
       134         -0.93032811        0.000020
       135         -0.93032811        0.000016
       136         -0.93032811        0.000012
       137         -0.93032811        0.000012
       138         -0.93032811        0.000012
       139         -0.93032811        0.000010
       140         -0.93032811        0.000008
       141         -0.93032811        0.000008
       142         -0.93032811        0.000008
       143         -0.93032811        0.000008
       144         -0.93032811        0.000008
       145         -0.93032811        0.000008
       146         -0.93032811        0.000005
       147         -0.93032811        0.000005
       148         -0.93032811        0.000005
       149         -0.93032811        0.000005
       150         -0.93032811        0.000005
       151         -0.93032811        0.000004
       152         -0.93032811        0.000003
       153         -0.93032811        0.000003
       154         -0.93032811        0.000002
       155         -0.93032811        0.000002
       156         -0.93032811        0.000002
       157         -0.93032811        0.000002
       158         -0.93032811        0.000001
       159         -0.93032811        0.000001

 Reached Convergence

 WFN1                     :
 --------------------------
 Total WFN1 energy  =          -0.9303281082
 1-Electron energy  =          -1.1173488719
 2-Electron energy  =           0.3424453374
 Correlation energy =          -0.2489813906
 DFT XC energy      =           0.0000000000
 Entropy energy     =           0.0000000000
 Nuclear energy     =           0.0935568169

 conventional Hartree-Fock:
 --------------------------
 Total SCF energy  =          -0.8695382537
 2-Electron energy =           0.4032351920

                WFN1 Final Natural orbital energies and occupations
                ---------------------------------------------------

              Alpha       Beta            Alpha       Beta  
            --------    --------        --------    --------
       1      0.0000      0.0000          0.4844      0.4844
       2      0.0000      0.0000          0.4838      0.4838
       3      0.0000      0.0000          0.0159      0.0159
       4      0.0000      0.0000          0.0159      0.0159

             WFN1 Final Correlation function energies and occupations
             --------------------------------------------------------

              Alpha       Beta            Alpha       Beta  
            --------    --------        --------    --------
       1      0.0000      0.0000          1.0000      1.0000
       2      0.0000      0.0000          0.0000      0.0000
       3      0.0000      0.0000          0.0000      0.0000
       4      0.0000      0.0000          0.0000      0.0000

                WFN1 Final alpha-alpha 2-matrix occupation numbers
                --------------------------------------------------


 global array: g_momo1[1:4,1:4],  handle: -990 

            1           2           3           4  
       ----------- ----------- ----------- -----------
   1       0.00000     0.00000    -0.00000     0.00000
   2       0.00000     0.00000     0.00000     0.00000
   3       0.00000    -0.00000    -0.00000     0.00000
   4      -0.00000     0.00000     0.00000     0.00000

                 WFN1 Final beta-beta 2-matrix occupation numbers
                 ------------------------------------------------


 global array: g_momo2[1:4,1:4],  handle: -989 

            1           2           3           4  
       ----------- ----------- ----------- -----------
   1       0.00000     0.00000    -0.00000     0.00000
   2       0.00000     0.00000     0.00000     0.00000
   3       0.00000    -0.00000    -0.00000     0.00000
   4      -0.00000     0.00000     0.00000     0.00000

                  WFN1 Final alpha Correlation Function Analysis
                  ----------------------------------------------


 global array: Ca[1:4,1:4],  handle: -977 

                     1                       2                       3                       4  
       ----------------------- ----------------------- ----------------------- -----------------------
   1       0.68553,    0.12034     0.70016,    0.12591    -0.08988,    0.02050    -0.00466,    0.03100
   2      -0.10946,    0.68687     0.10461,   -0.69241    -0.07906,   -0.12026    -0.05510,    0.04583
   3       0.00216,   -0.12608    -0.03429,    0.02284    -0.58090,   -0.38396    -0.58472,   -0.39451
   4      -0.01705,   -0.12488    -0.00802,    0.04222    -0.23584,   -0.65597     0.24951,    0.65886

                   WFN1 Final beta Correlation Function Analysis
                   ---------------------------------------------


 global array: Cb[1:4,1:4],  handle: -976 

                     1                       2                       3                       4  
       ----------------------- ----------------------- ----------------------- -----------------------
   1       0.68553,    0.12034     0.70016,    0.12591    -0.08988,    0.02050    -0.00466,    0.03100
   2      -0.10946,    0.68687     0.10461,   -0.69241    -0.07906,   -0.12026    -0.05510,    0.04583
   3       0.00216,   -0.12608    -0.03429,    0.02284    -0.58090,   -0.38396    -0.58472,   -0.39451
   4      -0.01705,   -0.12488    -0.00802,    0.04222    -0.23584,   -0.65597     0.24951,    0.65886

                     WFN1 Final Alpha Natural Orbital Analysis
                     -----------------------------------------

 Vector    1  Occ=4.844395D-01  E= 0.000000D+00
              MO Center=  0.0D+00,  0.0D+00, -5.6D-07, r^2= 8.9D+00
   Bfn.  Coefficient  Atom+Function         Bfn.  Coefficient  Atom+Function  
  ----- ------------  ---------------      ----- ------------  ---------------
     2     -0.513893  1 H  s                  4     -0.513893  2 H  s          
     1     -0.253595  1 H  s                  3     -0.253595  2 H  s          

 Vector    2  Occ=4.837731D-01  E= 0.000000D+00
              MO Center=  0.0D+00,  0.0D+00,  5.6D-07, r^2= 8.9D+00
   Bfn.  Coefficient  Atom+Function         Bfn.  Coefficient  Atom+Function  
  ----- ------------  ---------------      ----- ------------  ---------------
     2     -0.513735  1 H  s                  4      0.513735  2 H  s          
     1     -0.253820  1 H  s                  3      0.253820  2 H  s          

 Vector    3  Occ=1.590186D-02  E= 0.000000D+00
              MO Center=  0.0D+00,  0.0D+00,  2.4D-06, r^2= 9.1D+00
   Bfn.  Coefficient  Atom+Function         Bfn.  Coefficient  Atom+Function  
  ----- ------------  ---------------      ----- ------------  ---------------
     1      0.904433  1 H  s                  3      0.904434  2 H  s          
     2     -0.786216  1 H  s                  4     -0.786217  2 H  s          

 Vector    4  Occ=1.588554D-02  E= 0.000000D+00
              MO Center=  0.0D+00,  0.0D+00, -2.4D-06, r^2= 9.1D+00
   Bfn.  Coefficient  Atom+Function         Bfn.  Coefficient  Atom+Function  
  ----- ------------  ---------------      ----- ------------  ---------------
     1     -0.904444  1 H  s                  3      0.904443  2 H  s          
     2      0.786516  1 H  s                  4     -0.786516  2 H  s          


                     WFN1 Final Beta Natural Orbital Analysis
                     ----------------------------------------

 Vector    1  Occ=4.844395D-01  E= 0.000000D+00
              MO Center=  0.0D+00,  0.0D+00, -5.6D-07, r^2= 8.9D+00
   Bfn.  Coefficient  Atom+Function         Bfn.  Coefficient  Atom+Function  
  ----- ------------  ---------------      ----- ------------  ---------------
     2     -0.513893  1 H  s                  4     -0.513893  2 H  s          
     1     -0.253595  1 H  s                  3     -0.253595  2 H  s          

 Vector    2  Occ=4.837731D-01  E= 0.000000D+00
              MO Center=  0.0D+00,  0.0D+00,  5.6D-07, r^2= 8.9D+00
   Bfn.  Coefficient  Atom+Function         Bfn.  Coefficient  Atom+Function  
  ----- ------------  ---------------      ----- ------------  ---------------
     2     -0.513735  1 H  s                  4      0.513735  2 H  s          
     1     -0.253820  1 H  s                  3      0.253820  2 H  s          

 Vector    3  Occ=1.590186D-02  E= 0.000000D+00
              MO Center=  0.0D+00,  0.0D+00,  2.4D-06, r^2= 9.1D+00
   Bfn.  Coefficient  Atom+Function         Bfn.  Coefficient  Atom+Function  
  ----- ------------  ---------------      ----- ------------  ---------------
     1      0.904433  1 H  s                  3      0.904434  2 H  s          
     2     -0.786216  1 H  s                  4     -0.786217  2 H  s          

 Vector    4  Occ=1.588554D-02  E= 0.000000D+00
              MO Center=  0.0D+00,  0.0D+00, -2.4D-06, r^2= 9.1D+00
   Bfn.  Coefficient  Atom+Function         Bfn.  Coefficient  Atom+Function  
  ----- ------------  ---------------      ----- ------------  ---------------
     1     -0.904444  1 H  s                  3      0.904443  2 H  s          
     2      0.786516  1 H  s                  4     -0.786516  2 H  s          


 Task  times  cpu:        9.8s     wall:       14.9s
 Summary of allocated global arrays
-----------------------------------
  No active global arrays



                         GA Statistics for process    0
                         ------------------------------

       create   destroy   get      put      acc     scatter   gather  read&inc
calls:   44       44     6.06e+06 1.28e+04 1.66e+04    0        0       10     
number of processes/call 1.00e+00 1.00e+00 1.00e+00 0.00e+00 0.00e+00
bytes total:             7.79e+08 2.13e+06 2.65e+06 0.00e+00 0.00e+00 8.00e+01
bytes remote:            0.00e+00 0.00e+00 0.00e+00 0.00e+00 0.00e+00 0.00e+00
Max memory consumed for GA by this process: 10624 bytes
MA_summarize_allocated_blocks: starting scan ...
MA_summarize_allocated_blocks: scan completed: 0 heap blocks, 0 stack blocks
MA usage statistics:

	allocation statistics:
					      heap	     stack
					      ----	     -----
	current number of blocks	         0	         0
	maximum number of blocks	        19	        17
	current total bytes		         0	         0
	maximum total bytes		   3204328	  22508616
	maximum total K-bytes		      3205	     22509
	maximum total M-bytes		         4	        23


                                NWChem Input Module
                                -------------------





                                     CITATION
                                     --------
                Please cite the following reference when publishing
                           results obtained with NWChem:

                 M. Valiev, E.J. Bylaska, N. Govind, K. Kowalski,
              T.P. Straatsma, H.J.J. van Dam, D. Wang, J. Nieplocha,
                        E. Apra, T.L. Windus, W.A. de Jong
                 "NWChem: a comprehensive and scalable open-source
                  solution for large scale molecular simulations"
                      Comput. Phys. Commun. 181, 1477 (2010)
                           doi:10.1016/j.cpc.2010.04.018

                                      AUTHORS
                                      -------
          E. Apra, E. J. Bylaska, W. A. de Jong, N. Govind, K. Kowalski,
       T. P. Straatsma, M. Valiev, H. J. J. van Dam, D. Wang, T. L. Windus,
        J. Hammond, J. Autschbach, K. Bhaskaran-Nair, J. Brabec, K. Lopata,
    S. A. Fischer, S. Krishnamoorthy, M. Jacquelin, W. Ma, M. Klemm, O. Villa,
      Y. Chen, V. Anisimov, F. Aquino, S. Hirata, M. T. Hackler, V. Konjkov,
      T. Risthaus, M. Malagoli, A. Marenich, A. Otero-de-la-Roza, J. Mullin,
        P. Nichols, R. Peverati, J. Pittner, Y. Zhao, P.-D. Fan, A. Fonari,
       M. Williamson, R. J. Harrison, J. R. Rehr, M. Dupuis, D. Silverstein,
    D. M. A. Smith, J. Nieplocha, V. Tipparaju, M. Krishnan, B. E. Van Kuiken,
        A. Vazquez-Mayagoitia, L. Jensen, M. Swart, Q. Wu, T. Van Voorhis,
     A. A. Auer, M. Nooijen, L. D. Crosby, E. Brown, G. Cisneros, G. I. Fann,
   H. Fruchtl, J. Garza, K. Hirao, R. A. Kendall, J. A. Nichols, K. Tsemekhman,
    K. Wolinski, J. Anchell, D. E. Bernholdt, P. Borowski, T. Clark, D. Clerc,
   H. Dachsel, M. J. O. Deegan, K. Dyall, D. Elwood, E. Glendening, M. Gutowski,
   A. C. Hess, J. Jaffe, B. G. Johnson, J. Ju, R. Kobayashi, R. Kutteh, Z. Lin,
   R. Littlefield, X. Long, B. Meng, T. Nakajima, S. Niu, L. Pollack, M. Rosing,
   K. Glaesemann, G. Sandrone, M. Stave, H. Taylor, G. Thomas, J. H. van Lenthe,
                               A. T. Wong, Z. Zhang.

 Total times  cpu:        9.9s     wall:       14.9s
