 argument  1 = input-wf.nw



============================== echo of input deck ==============================
echo
start wfn1_dat
geometry units au noautoz
  H 0 0 -1.99434600000000000000
  H 0 0  1.99434600000000000000
  symmetry cs
end
basis
  H library 6-31g
end
set wfn1:input_vectors "atomic"
set wfn1:solver "monte-carlo"
set wfn1:print_error F
set wfn1:t_initial 0.1
#set wfn1:corr_expr "wfn1_mx"
set wfn1:corr_expr "wfn1c"
set wfn1:t_bath 0.0
set wfn1:maxit  20000
task wfn1 energy
================================================================================


                                         
                                         


              Northwest Computational Chemistry Package (NWChem) 6.8
              ------------------------------------------------------


                    Environmental Molecular Sciences Laboratory
                       Pacific Northwest National Laboratory
                                Richland, WA 99352

                              Copyright (c) 1994-2015
                       Pacific Northwest National Laboratory
                            Battelle Memorial Institute

             NWChem is an open-source computational chemistry package
                        distributed under the terms of the
                      Educational Community License (ECL) 2.0
             A copy of the license is included with this distribution
                              in the LICENSE.TXT file

                                  ACKNOWLEDGMENT
                                  --------------

            This software and its documentation were developed at the
            EMSL at Pacific Northwest National Laboratory, a multiprogram
            national laboratory, operated for the U.S. Department of Energy
            by Battelle under Contract Number DE-AC05-76RL01830. Support
            for this work was provided by the Department of Energy Office
            of Biological and Environmental Research, Office of Basic
            Energy Sciences, and the Office of Advanced Scientific Computing.


           Job information
           ---------------

    hostname        = erato
    program         = ../../../bin/LINUX64/nwchem
    date            = Mon Mar  1 01:38:38 2021

    compiled        = Sun_Feb_28_18:02:42_2021
    source          = /home/hvandam/nwchem-1-wfn1
    nwchem branch   = Development
    nwchem revision = nwchem_on_git-124-gad72d19fff205e319ffbbf2bca37a04ded6ad57b
    ga revision     = nwchem_on_git-124-gad72d19
    use scalapack   = F
    input           = input-wf.nw
    prefix          = wfn1_dat.
    data base       = ./wfn1_dat.db
    status          = startup
    nproc           =        1
    time left       =     -1s



           Memory information
           ------------------

    heap     =   13107198 doubles =    100.0 Mbytes
    stack    =   13107195 doubles =    100.0 Mbytes
    global   =   26214400 doubles =    200.0 Mbytes (distinct from heap & stack)
    total    =   52428793 doubles =    400.0 Mbytes
    verify   = yes
    hardfail = no 


           Directory information
           ---------------------

  0 permanent = .
  0 scratch   = .




                                NWChem Input Module
                                -------------------


 Turning off AUTOSYM since
 SYMMETRY directive was detected!



                             Geometry "geometry" -> ""
                             -------------------------

 Output coordinates in a.u. (scale by  1.000000000 to convert to a.u.)

  No.       Tag          Charge          X              Y              Z
 ---- ---------------- ---------- -------------- -------------- --------------
    1 H                    1.0000     0.00000000     0.00000000    -1.99434600
    2 H                    1.0000     0.00000000     0.00000000     1.99434600

      Atomic Mass 
      ----------- 

      H                  1.007825


 Effective nuclear repulsion energy (a.u.)       0.2507087536

            Nuclear Dipole moment (a.u.) 
            ----------------------------
        X                 Y               Z
 ---------------- ---------------- ----------------
     0.0000000000     0.0000000000     0.0000000000

      Symmetry information
      --------------------

 Group name             Cs        
 Group number              2
 Group order               2
 No. of unique centers     1

      Symmetry unique atoms

     1


            XYZ format geometry
            -------------------
     2
 geometry
 H                     0.00000000     0.00000000    -1.05536253
 H                     0.00000000     0.00000000     1.05536253

                      Basis "ao basis" -> "" (cartesian)
                      -----
  H (Hydrogen)
  ------------
            Exponent  Coefficients 
       -------------- ---------------------------------------------------------
  1 S  1.87311370E+01  0.033495
  1 S  2.82539370E+00  0.234727
  1 S  6.40121700E-01  0.813757

  2 S  1.61277800E-01  1.000000



 Summary of "ao basis" -> "" (cartesian)
 ------------------------------------------------------------------------------
       Tag                 Description            Shells   Functions and Types
 ---------------- ------------------------------  ------  ---------------------
 H                           6-31g                   2        2   2s



                                NWChem WFN1 Module
                                ------------------



          No. of electrons :     2
           Alpha electrons :     1
            Beta electrons :     1
          Charge           :     0
          Spin multiplicity:     1

 HvD: wfn1_inpdft
 HvD: nquad_task =                     1
 HvD: iangquad   =                     0
 HvD: gridtype   = user      
 HvD: leb        =  T
 HvD: radgrid    = murakn    
 HvD: trunc_neigh=  T
 HvD: lssw       =  T
 HvD: whichssw   = erf1    
 HvD: mxnrad     =                     0
 HvD: mxnang     =                     0
 HVD: wfn1: movecs_in  = atomic                                                                                                                                                                                                                                                          
 HVD: wfn1: movecs_out = ./wfn1_dat.movecs                                                                                                                                                                                                                                               

      Superposition of Atomic Density Guess
      -------------------------------------

 Sum of atomic energies:          -0.99646508

      Non-variational initial energy
      ------------------------------

 Total energy =      -0.690516
 1-e energy   =      -1.497582
 2-e energy   =       0.556357
 HOMO         =      -0.256870
 LUMO         =      -0.118386

 iteration              energy           error
 ---------              ------           -----
         0         -0.93172078        0.080000
         1         -0.93553464        0.080000
         2         -0.93720598        0.080000
         3         -0.94133654        0.080000
         4         -0.94203541        0.080000
         5         -0.94555940        0.080000
         6         -0.94773730        0.080000
         7         -0.94942053        0.080000
         8         -0.95257722        0.080000
         9         -0.95722155        0.080000
        10         -0.95993856        0.080000
        11         -0.96349528        0.080000
        12         -0.96578677        0.080000
        13         -0.96685613        0.080000
        14         -0.96998536        0.080000
        15         -0.97146142        0.080000
        16         -0.97386419        0.080000
        17         -0.97466108        0.080000
        18         -0.97500560        0.080000
        19         -0.97576713        0.080000
        20         -0.97607851        0.080000
        21         -0.97636494        0.080000
        22         -0.97702526        0.080000
        23         -0.97715081        0.080000
        24         -0.97766901        0.080000
        25         -0.97841792        0.080000
        26         -0.97934707        0.080000
        27         -0.98071137        0.080000
        28         -0.98074068        0.080000
        29         -0.98162104        0.080000
        30         -0.98211716        0.080000
        31         -0.98323281        0.080000
        32         -0.98341740        0.080000
        33         -0.98383318        0.080000
        34         -0.98451068        0.080000
        35         -0.98453972        0.080000
        36         -0.98456010        0.080000
        37         -0.98470536        0.080000
        38         -0.98481219        0.080000
        39         -0.98504645        0.080000
        40         -0.98538971        0.080000
        41         -0.98553679        0.080000
        42         -0.98600266        0.080000
        43         -0.98610930        0.080000
        44         -0.98623618        0.080000
        45         -0.98625684        0.080000
        46         -0.98638432        0.080000
        47         -0.98642624        0.080000
        48         -0.98645728        0.063496
        49         -0.98646631        0.050397
        50         -0.98648905        0.050397
        51         -0.98650340        0.040000
        52         -0.98652872        0.040000
        53         -0.98653904        0.040000
        54         -0.98655721        0.031748
        55         -0.98657143        0.025198
        56         -0.98657494        0.025198
        57         -0.98657942        0.015874
        58         -0.98658260        0.015874
        59         -0.98658627        0.012599
        60         -0.98658668        0.012599
        61         -0.98658757        0.012599
        62         -0.98658959        0.012599
        63         -0.98659420        0.012599
        64         -0.98659460        0.012599
        65         -0.98659502        0.012599
        66         -0.98659579        0.007937
        67         -0.98659660        0.007937
        68         -0.98659680        0.007937
        69         -0.98659759        0.007937
        70         -0.98659949        0.007937
        71         -0.98659953        0.007937
        72         -0.98660005        0.007937
        73         -0.98660115        0.007937
        74         -0.98660266        0.007937
        75         -0.98660300        0.007937
        76         -0.98660360        0.007937
        77         -0.98660632        0.007937
        78         -0.98660732        0.007937
        79         -0.98660770        0.006300
        80         -0.98660861        0.006300
        81         -0.98660868        0.005000
        82         -0.98660932        0.005000
        83         -0.98660962        0.003969
        84         -0.98660970        0.003969
        85         -0.98661000        0.003969
        86         -0.98661020        0.003150
        87         -0.98661035        0.003150
        88         -0.98661048        0.003150
        89         -0.98661049        0.003150
        90         -0.98661056        0.003150
        91         -0.98661063        0.003150
        92         -0.98661071        0.003150
        93         -0.98661086        0.003150
        94         -0.98661086        0.003150
        95         -0.98661088        0.003150
        96         -0.98661092        0.003150
        97         -0.98661094        0.003150
        98         -0.98661112        0.002500
        99         -0.98661118        0.002500
       100         -0.98661119        0.002500
       101         -0.98661120        0.002500
       102         -0.98661122        0.002500
       103         -0.98661138        0.002500
       104         -0.98661141        0.001984
       105         -0.98661159        0.001984
       106         -0.98661162        0.001984
       107         -0.98661165        0.001984
       108         -0.98661171        0.001984
       109         -0.98661171        0.001984
       110         -0.98661172        0.001984
       111         -0.98661174        0.001984
       112         -0.98661175        0.001984
       113         -0.98661181        0.001984
       114         -0.98661188        0.001984
       115         -0.98661190        0.001984
       116         -0.98661192        0.001984
       117         -0.98661200        0.001984
       118         -0.98661201        0.001984
       119         -0.98661203        0.001984
       120         -0.98661203        0.001984
       121         -0.98661205        0.001575
       122         -0.98661205        0.001575
       123         -0.98661205        0.001575
       124         -0.98661205        0.001575
       125         -0.98661210        0.001575
       126         -0.98661210        0.001575
       127         -0.98661212        0.001575
       128         -0.98661213        0.001575
       129         -0.98661213        0.001575
       130         -0.98661217        0.001575
       131         -0.98661222        0.001575
       132         -0.98661224        0.001250
       133         -0.98661225        0.001250
       134         -0.98661225        0.001250
       135         -0.98661225        0.001250
       136         -0.98661226        0.000992
       137         -0.98661226        0.000992
       138         -0.98661227        0.000992
       139         -0.98661227        0.000992
       140         -0.98661227        0.000992
       141         -0.98661228        0.000625
       142         -0.98661228        0.000625
       143         -0.98661228        0.000625
       144         -0.98661229        0.000496
       145         -0.98661229        0.000496
       146         -0.98661229        0.000496
       147         -0.98661229        0.000496
       148         -0.98661229        0.000496
       149         -0.98661230        0.000394
       150         -0.98661230        0.000394
       151         -0.98661230        0.000394
       152         -0.98661230        0.000394
       153         -0.98661230        0.000394
       154         -0.98661230        0.000394
       155         -0.98661231        0.000394
       156         -0.98661231        0.000394
       157         -0.98661231        0.000313
       158         -0.98661231        0.000313
       159         -0.98661231        0.000313
       160         -0.98661231        0.000313
       161         -0.98661231        0.000197
       162         -0.98661231        0.000197
       163         -0.98661231        0.000197
       164         -0.98661231        0.000197
       165         -0.98661231        0.000197
       166         -0.98661231        0.000197
       167         -0.98661231        0.000197
       168         -0.98661231        0.000197
       169         -0.98661231        0.000156
       170         -0.98661231        0.000156
       171         -0.98661231        0.000156
       172         -0.98661231        0.000156
       173         -0.98661231        0.000098
       174         -0.98661231        0.000098
       175         -0.98661231        0.000098
       176         -0.98661231        0.000098
       177         -0.98661231        0.000098
       178         -0.98661231        0.000078
       179         -0.98661231        0.000078
       180         -0.98661231        0.000078
       181         -0.98661231        0.000078
       182         -0.98661231        0.000078
       183         -0.98661231        0.000062
       184         -0.98661231        0.000049
       185         -0.98661231        0.000049
       186         -0.98661231        0.000049
       187         -0.98661231        0.000049
       188         -0.98661231        0.000049
       189         -0.98661231        0.000049
       190         -0.98661231        0.000049
       191         -0.98661231        0.000049
       192         -0.98661231        0.000049
       193         -0.98661231        0.000049
       194         -0.98661231        0.000031
       195         -0.98661231        0.000031
       196         -0.98661231        0.000031
       197         -0.98661231        0.000031
       198         -0.98661231        0.000031
       199         -0.98661231        0.000031
       200         -0.98661231        0.000031
       201         -0.98661231        0.000025
       202         -0.98661231        0.000025
       203         -0.98661231        0.000025
       204         -0.98661231        0.000025
       205         -0.98661231        0.000025
       206         -0.98661231        0.000025
       207         -0.98661231        0.000025
       208         -0.98661231        0.000025
       209         -0.98661231        0.000025
       210         -0.98661231        0.000025
       211         -0.98661231        0.000025
       212         -0.98661231        0.000020
       213         -0.98661231        0.000020
       214         -0.98661231        0.000020
       215         -0.98661231        0.000020
       216         -0.98661231        0.000020
       217         -0.98661231        0.000012
       218         -0.98661231        0.000012
       219         -0.98661231        0.000012
       220         -0.98661231        0.000012
       221         -0.98661231        0.000012
       222         -0.98661231        0.000012
       223         -0.98661231        0.000010
       224         -0.98661231        0.000010
       225         -0.98661231        0.000010
       226         -0.98661231        0.000010
       227         -0.98661231        0.000010
       228         -0.98661231        0.000010
       229         -0.98661231        0.000010
       230         -0.98661231        0.000010
       231         -0.98661231        0.000010
       232         -0.98661231        0.000010
       233         -0.98661231        0.000010
       234         -0.98661231        0.000010
       235         -0.98661231        0.000010
       236         -0.98661231        0.000010
       237         -0.98661231        0.000010
       238         -0.98661231        0.000010
       239         -0.98661231        0.000010
       240         -0.98661231        0.000010
       241         -0.98661231        0.000006
       242         -0.98661231        0.000006
       243         -0.98661231        0.000006
       244         -0.98661231        0.000006
       245         -0.98661231        0.000006
       246         -0.98661231        0.000005
       247         -0.98661231        0.000004
       248         -0.98661231        0.000004
       249         -0.98661231        0.000003
       250         -0.98661231        0.000003
       251         -0.98661231        0.000002
       252         -0.98661231        0.000002
       253         -0.98661231        0.000002
       254         -0.98661231        0.000002
       255         -0.98661231        0.000002
       256         -0.98661231        0.000002
       257         -0.98661231        0.000002
       258         -0.98661231        0.000002
       259         -0.98661231        0.000002
       260         -0.98661231        0.000002
       261         -0.98661231        0.000002
       262         -0.98661231        0.000002
       263         -0.98661231        0.000002
       264         -0.98661231        0.000001
       265         -0.98661231        0.000001
       266         -0.98661231        0.000001
       267         -0.98661231        0.000001
       268         -0.98661231        0.000001
       269         -0.98661231        0.000001
       270         -0.98661231        0.000001
       271         -0.98661231        0.000001
       272         -0.98661231        0.000001
       273         -0.98661231        0.000001

 Reached Convergence

 WFN1                     :
 --------------------------
 Total WFN1 energy  =          -0.9866123126
 1-Electron energy  =          -1.4633321044
 2-Electron energy  =           0.4207269003
 Correlation energy =          -0.1947158621
 DFT XC energy      =           0.0000000000
 Entropy energy     =           0.0000000000
 Nuclear energy     =           0.2507087536

 conventional Hartree-Fock:
 --------------------------
 Total SCF energy  =          -0.8795229466
 2-Electron energy =           0.5278162663

                WFN1 Final Natural orbital energies and occupations
                ---------------------------------------------------

              Alpha       Beta            Alpha       Beta  
            --------    --------        --------    --------
       1      0.0000      0.0000          0.7197      0.7197
       2      0.0000      0.0000          0.2515      0.2515
       3      0.0000      0.0000          0.0164      0.0164
       4      0.0000      0.0000          0.0124      0.0124

             WFN1 Final Correlation function energies and occupations
             --------------------------------------------------------

              Alpha       Beta            Alpha       Beta  
            --------    --------        --------    --------
       1      0.0000      0.0000          1.0000      1.0000
       2      0.0000      0.0000          0.0000      0.0000
       3      0.0000      0.0000          0.0000      0.0000
       4      0.0000      0.0000          0.0000      0.0000

                WFN1 Final alpha-alpha 2-matrix occupation numbers
                --------------------------------------------------


 global array: g_momo1[1:4,1:4],  handle: -990 

            1           2           3           4  
       ----------- ----------- ----------- -----------
   1       0.00000    -0.00000     0.00000     0.00000
   2       0.00000     0.00000     0.00000    -0.00000
   3       0.00000     0.00000     0.00000     0.00000
   4       0.00000    -0.00000     0.00000     0.00000

                 WFN1 Final beta-beta 2-matrix occupation numbers
                 ------------------------------------------------


 global array: g_momo2[1:4,1:4],  handle: -989 

            1           2           3           4  
       ----------- ----------- ----------- -----------
   1       0.00000    -0.00000     0.00000     0.00000
   2       0.00000     0.00000     0.00000    -0.00000
   3       0.00000     0.00000     0.00000     0.00000
   4       0.00000    -0.00000     0.00000     0.00000

                  WFN1 Final alpha Correlation Function Analysis
                  ----------------------------------------------


 global array: Ca[1:4,1:4],  handle: -977 

                     1                       2                       3                       4  
       ----------------------- ----------------------- ----------------------- -----------------------
   1       0.28413,    0.79935    -0.20262,   -0.46248    -0.02437,    0.01120    -0.14619,    0.05725
   2      -0.49680,    0.06874    -0.84410,    0.17388     0.03865,   -0.02698    -0.00153,   -0.05914
   3       0.12648,    0.02010    -0.00655,   -0.03669     0.20609,   -0.76348     0.16295,   -0.57470
   4       0.08270,   -0.07436    -0.00274,    0.03039     0.46009,    0.40000    -0.58764,   -0.51933

                   WFN1 Final beta Correlation Function Analysis
                   ---------------------------------------------


 global array: Cb[1:4,1:4],  handle: -976 

                     1                       2                       3                       4  
       ----------------------- ----------------------- ----------------------- -----------------------
   1       0.28413,    0.79935    -0.20262,   -0.46248    -0.02437,    0.01120    -0.14619,    0.05725
   2      -0.49680,    0.06874    -0.84410,    0.17388     0.03865,   -0.02698    -0.00153,   -0.05914
   3       0.12648,    0.02010    -0.00655,   -0.03669     0.20609,   -0.76348     0.16295,   -0.57470
   4       0.08270,   -0.07436    -0.00274,    0.03039     0.46009,    0.40000    -0.58764,   -0.51933

                     WFN1 Final Alpha Natural Orbital Analysis
                     -----------------------------------------

 Vector    1  Occ=7.196932D-01  E= 0.000000D+00
              MO Center=  0.0D+00,  0.0D+00,  2.2D-07, r^2= 1.9D+00
   Bfn.  Coefficient  Atom+Function         Bfn.  Coefficient  Atom+Function  
  ----- ------------  ---------------      ----- ------------  ---------------
     2     -0.472745  1 H  s                  4     -0.472745  2 H  s          
     1     -0.230433  1 H  s                  3     -0.230433  2 H  s          

 Vector    2  Occ=2.515376D-01  E= 0.000000D+00
              MO Center=  0.0D+00,  0.0D+00, -2.6D-07, r^2= 2.1D+00
   Bfn.  Coefficient  Atom+Function         Bfn.  Coefficient  Atom+Function  
  ----- ------------  ---------------      ----- ------------  ---------------
     2     -0.542137  1 H  s                  4      0.542137  2 H  s          
     1     -0.308452  1 H  s                  3      0.308451  2 H  s          

 Vector    3  Occ=1.640018D-02  E= 0.000000D+00
              MO Center=  0.0D+00,  0.0D+00, -1.4D-06, r^2= 2.0D+00
   Bfn.  Coefficient  Atom+Function         Bfn.  Coefficient  Atom+Function  
  ----- ------------  ---------------      ----- ------------  ---------------
     1     -0.903312  1 H  s                  3     -0.903310  2 H  s          
     2      0.678059  1 H  s                  4      0.678058  2 H  s          

 Vector    4  Occ=1.236907D-02  E= 0.000000D+00
              MO Center=  0.0D+00,  0.0D+00,  1.4D-06, r^2= 2.8D+00
   Bfn.  Coefficient  Atom+Function         Bfn.  Coefficient  Atom+Function  
  ----- ------------  ---------------      ----- ------------  ---------------
     2      0.995686  1 H  s                  4     -0.995687  2 H  s          
     1     -0.915262  1 H  s                  3      0.915263  2 H  s          


                     WFN1 Final Beta Natural Orbital Analysis
                     ----------------------------------------

 Vector    1  Occ=7.196932D-01  E= 0.000000D+00
              MO Center=  0.0D+00,  0.0D+00,  2.2D-07, r^2= 1.9D+00
   Bfn.  Coefficient  Atom+Function         Bfn.  Coefficient  Atom+Function  
  ----- ------------  ---------------      ----- ------------  ---------------
     2     -0.472745  1 H  s                  4     -0.472745  2 H  s          
     1     -0.230433  1 H  s                  3     -0.230433  2 H  s          

 Vector    2  Occ=2.515376D-01  E= 0.000000D+00
              MO Center=  0.0D+00,  0.0D+00, -2.6D-07, r^2= 2.1D+00
   Bfn.  Coefficient  Atom+Function         Bfn.  Coefficient  Atom+Function  
  ----- ------------  ---------------      ----- ------------  ---------------
     2     -0.542137  1 H  s                  4      0.542137  2 H  s          
     1     -0.308452  1 H  s                  3      0.308451  2 H  s          

 Vector    3  Occ=1.640018D-02  E= 0.000000D+00
              MO Center=  0.0D+00,  0.0D+00, -1.4D-06, r^2= 2.0D+00
   Bfn.  Coefficient  Atom+Function         Bfn.  Coefficient  Atom+Function  
  ----- ------------  ---------------      ----- ------------  ---------------
     1     -0.903312  1 H  s                  3     -0.903310  2 H  s          
     2      0.678059  1 H  s                  4      0.678058  2 H  s          

 Vector    4  Occ=1.236907D-02  E= 0.000000D+00
              MO Center=  0.0D+00,  0.0D+00,  1.4D-06, r^2= 2.8D+00
   Bfn.  Coefficient  Atom+Function         Bfn.  Coefficient  Atom+Function  
  ----- ------------  ---------------      ----- ------------  ---------------
     2      0.995686  1 H  s                  4     -0.995687  2 H  s          
     1     -0.915262  1 H  s                  3      0.915263  2 H  s          


 Task  times  cpu:       10.8s     wall:       14.5s
 Summary of allocated global arrays
-----------------------------------
  No active global arrays



                         GA Statistics for process    0
                         ------------------------------

       create   destroy   get      put      acc     scatter   gather  read&inc
calls:   44       44     8.11e+06 1.70e+04 2.22e+04    0        0       11     
number of processes/call 1.00e+00 1.00e+00 1.00e+00 0.00e+00 0.00e+00
bytes total:             1.04e+09 2.84e+06 3.55e+06 0.00e+00 0.00e+00 8.80e+01
bytes remote:            0.00e+00 0.00e+00 0.00e+00 0.00e+00 0.00e+00 0.00e+00
Max memory consumed for GA by this process: 10624 bytes
MA_summarize_allocated_blocks: starting scan ...
MA_summarize_allocated_blocks: scan completed: 0 heap blocks, 0 stack blocks
MA usage statistics:

	allocation statistics:
					      heap	     stack
					      ----	     -----
	current number of blocks	         0	         0
	maximum number of blocks	        19	        17
	current total bytes		         0	         0
	maximum total bytes		   3204344	  22508664
	maximum total K-bytes		      3205	     22509
	maximum total M-bytes		         4	        23


                                NWChem Input Module
                                -------------------





                                     CITATION
                                     --------
                Please cite the following reference when publishing
                           results obtained with NWChem:

                 M. Valiev, E.J. Bylaska, N. Govind, K. Kowalski,
              T.P. Straatsma, H.J.J. van Dam, D. Wang, J. Nieplocha,
                        E. Apra, T.L. Windus, W.A. de Jong
                 "NWChem: a comprehensive and scalable open-source
                  solution for large scale molecular simulations"
                      Comput. Phys. Commun. 181, 1477 (2010)
                           doi:10.1016/j.cpc.2010.04.018

                                      AUTHORS
                                      -------
          E. Apra, E. J. Bylaska, W. A. de Jong, N. Govind, K. Kowalski,
       T. P. Straatsma, M. Valiev, H. J. J. van Dam, D. Wang, T. L. Windus,
        J. Hammond, J. Autschbach, K. Bhaskaran-Nair, J. Brabec, K. Lopata,
    S. A. Fischer, S. Krishnamoorthy, M. Jacquelin, W. Ma, M. Klemm, O. Villa,
      Y. Chen, V. Anisimov, F. Aquino, S. Hirata, M. T. Hackler, V. Konjkov,
      T. Risthaus, M. Malagoli, A. Marenich, A. Otero-de-la-Roza, J. Mullin,
        P. Nichols, R. Peverati, J. Pittner, Y. Zhao, P.-D. Fan, A. Fonari,
       M. Williamson, R. J. Harrison, J. R. Rehr, M. Dupuis, D. Silverstein,
    D. M. A. Smith, J. Nieplocha, V. Tipparaju, M. Krishnan, B. E. Van Kuiken,
        A. Vazquez-Mayagoitia, L. Jensen, M. Swart, Q. Wu, T. Van Voorhis,
     A. A. Auer, M. Nooijen, L. D. Crosby, E. Brown, G. Cisneros, G. I. Fann,
   H. Fruchtl, J. Garza, K. Hirao, R. A. Kendall, J. A. Nichols, K. Tsemekhman,
    K. Wolinski, J. Anchell, D. E. Bernholdt, P. Borowski, T. Clark, D. Clerc,
   H. Dachsel, M. J. O. Deegan, K. Dyall, D. Elwood, E. Glendening, M. Gutowski,
   A. C. Hess, J. Jaffe, B. G. Johnson, J. Ju, R. Kobayashi, R. Kutteh, Z. Lin,
   R. Littlefield, X. Long, B. Meng, T. Nakajima, S. Niu, L. Pollack, M. Rosing,
   K. Glaesemann, G. Sandrone, M. Stave, H. Taylor, G. Thomas, J. H. van Lenthe,
                               A. T. Wong, Z. Zhang.

 Total times  cpu:       10.8s     wall:       14.5s
