 argument  1 = input-wf.nw



============================== echo of input deck ==============================
echo
start wfn1_dat
geometry units au noautoz
  H 0 0 -1.39434600000000000000
  H 0 0  1.39434600000000000000
  symmetry cs
end
basis
  H library 6-31g
end
set wfn1:input_vectors "atomic"
set wfn1:solver "monte-carlo"
set wfn1:print_error F
set wfn1:t_initial 0.1
#set wfn1:corr_expr "wfn1_mx"
set wfn1:corr_expr "wfn1c"
set wfn1:t_bath 0.0
set wfn1:maxit  20000
task wfn1 energy
================================================================================


                                         
                                         


              Northwest Computational Chemistry Package (NWChem) 6.8
              ------------------------------------------------------


                    Environmental Molecular Sciences Laboratory
                       Pacific Northwest National Laboratory
                                Richland, WA 99352

                              Copyright (c) 1994-2015
                       Pacific Northwest National Laboratory
                            Battelle Memorial Institute

             NWChem is an open-source computational chemistry package
                        distributed under the terms of the
                      Educational Community License (ECL) 2.0
             A copy of the license is included with this distribution
                              in the LICENSE.TXT file

                                  ACKNOWLEDGMENT
                                  --------------

            This software and its documentation were developed at the
            EMSL at Pacific Northwest National Laboratory, a multiprogram
            national laboratory, operated for the U.S. Department of Energy
            by Battelle under Contract Number DE-AC05-76RL01830. Support
            for this work was provided by the Department of Energy Office
            of Biological and Environmental Research, Office of Basic
            Energy Sciences, and the Office of Advanced Scientific Computing.


           Job information
           ---------------

    hostname        = erato
    program         = ../../../bin/LINUX64/nwchem
    date            = Mon Mar  1 01:34:35 2021

    compiled        = Sun_Feb_28_18:02:42_2021
    source          = /home/hvandam/nwchem-1-wfn1
    nwchem branch   = Development
    nwchem revision = nwchem_on_git-124-gad72d19fff205e319ffbbf2bca37a04ded6ad57b
    ga revision     = nwchem_on_git-124-gad72d19
    use scalapack   = F
    input           = input-wf.nw
    prefix          = wfn1_dat.
    data base       = ./wfn1_dat.db
    status          = startup
    nproc           =        1
    time left       =     -1s



           Memory information
           ------------------

    heap     =   13107198 doubles =    100.0 Mbytes
    stack    =   13107195 doubles =    100.0 Mbytes
    global   =   26214400 doubles =    200.0 Mbytes (distinct from heap & stack)
    total    =   52428793 doubles =    400.0 Mbytes
    verify   = yes
    hardfail = no 


           Directory information
           ---------------------

  0 permanent = .
  0 scratch   = .




                                NWChem Input Module
                                -------------------


 Turning off AUTOSYM since
 SYMMETRY directive was detected!



                             Geometry "geometry" -> ""
                             -------------------------

 Output coordinates in a.u. (scale by  1.000000000 to convert to a.u.)

  No.       Tag          Charge          X              Y              Z
 ---- ---------------- ---------- -------------- -------------- --------------
    1 H                    1.0000     0.00000000     0.00000000    -1.39434600
    2 H                    1.0000     0.00000000     0.00000000     1.39434600

      Atomic Mass 
      ----------- 

      H                  1.007825


 Effective nuclear repulsion energy (a.u.)       0.3585910527

            Nuclear Dipole moment (a.u.) 
            ----------------------------
        X                 Y               Z
 ---------------- ---------------- ----------------
     0.0000000000     0.0000000000     0.0000000000

      Symmetry information
      --------------------

 Group name             Cs        
 Group number              2
 Group order               2
 No. of unique centers     1

      Symmetry unique atoms

     1


            XYZ format geometry
            -------------------
     2
 geometry
 H                     0.00000000     0.00000000    -0.73785618
 H                     0.00000000     0.00000000     0.73785618

                      Basis "ao basis" -> "" (cartesian)
                      -----
  H (Hydrogen)
  ------------
            Exponent  Coefficients 
       -------------- ---------------------------------------------------------
  1 S  1.87311370E+01  0.033495
  1 S  2.82539370E+00  0.234727
  1 S  6.40121700E-01  0.813757

  2 S  1.61277800E-01  1.000000



 Summary of "ao basis" -> "" (cartesian)
 ------------------------------------------------------------------------------
       Tag                 Description            Shells   Functions and Types
 ---------------- ------------------------------  ------  ---------------------
 H                           6-31g                   2        2   2s



                                NWChem WFN1 Module
                                ------------------



          No. of electrons :     2
           Alpha electrons :     1
            Beta electrons :     1
          Charge           :     0
          Spin multiplicity:     1

 HvD: wfn1_inpdft
 HvD: nquad_task =                     1
 HvD: iangquad   =                     0
 HvD: gridtype   = user      
 HvD: leb        =  T
 HvD: radgrid    = murakn    
 HvD: trunc_neigh=  T
 HvD: lssw       =  T
 HvD: whichssw   = erf1    
 HvD: mxnrad     =                     0
 HvD: mxnang     =                     0
 HVD: wfn1: movecs_in  = atomic                                                                                                                                                                                                                                                          
 HVD: wfn1: movecs_out = ./wfn1_dat.movecs                                                                                                                                                                                                                                               

      Superposition of Atomic Density Guess
      -------------------------------------

 Sum of atomic energies:          -0.99646508

      Non-variational initial energy
      ------------------------------

 Total energy =      -0.729086
 1-e energy   =      -1.705577
 2-e energy   =       0.617900
 HOMO         =      -0.343008
 LUMO         =      -0.021530

 iteration              energy           error
 ---------              ------           -----
         0         -1.01411856        0.080000
         1         -1.01583839        0.080000
         2         -1.01701711        0.080000
         3         -1.01865792        0.080000
         4         -1.01883569        0.080000
         5         -1.01995177        0.080000
         6         -1.02327462        0.080000
         7         -1.02481139        0.080000
         8         -1.02549734        0.080000
         9         -1.02865408        0.080000
        10         -1.02889507        0.080000
        11         -1.03058656        0.080000
        12         -1.03179848        0.080000
        13         -1.03208739        0.080000
        14         -1.03298723        0.080000
        15         -1.03422937        0.080000
        16         -1.03438088        0.080000
        17         -1.03441626        0.080000
        18         -1.03449899        0.080000
        19         -1.03478870        0.080000
        20         -1.03591796        0.080000
        21         -1.03606534        0.080000
        22         -1.03621483        0.080000
        23         -1.03657377        0.080000
        24         -1.03743258        0.080000
        25         -1.03802129        0.080000
        26         -1.03928968        0.080000
        27         -1.03929412        0.080000
        28         -1.03992265        0.080000
        29         -1.04002139        0.080000
        30         -1.04012893        0.080000
        31         -1.04033883        0.080000
        32         -1.04040450        0.080000
        33         -1.04047416        0.080000
        34         -1.04052438        0.080000
        35         -1.04085445        0.080000
        36         -1.04098716        0.080000
        37         -1.04122065        0.080000
        38         -1.04122086        0.080000
        39         -1.04141875        0.080000
        40         -1.04145178        0.080000
        41         -1.04172875        0.080000
        42         -1.04184559        0.080000
        43         -1.04199781        0.080000
        44         -1.04210231        0.080000
        45         -1.04214248        0.080000
        46         -1.04240201        0.080000
        47         -1.04259063        0.080000
        48         -1.04266712        0.080000
        49         -1.04272649        0.063496
        50         -1.04275682        0.063496
        51         -1.04275863        0.063496
        52         -1.04277369        0.063496
        53         -1.04278118        0.063496
        54         -1.04278848        0.063496
        55         -1.04279116        0.063496
        56         -1.04282681        0.063496
        57         -1.04283936        0.063496
        58         -1.04287269        0.063496
        59         -1.04287569        0.063496
        60         -1.04287632        0.063496
        61         -1.04289905        0.050397
        62         -1.04292041        0.050397
        63         -1.04296600        0.050397
        64         -1.04296640        0.050397
        65         -1.04297660        0.040000
        66         -1.04299185        0.031748
        67         -1.04299930        0.025198
        68         -1.04299960        0.020000
        69         -1.04300732        0.015874
        70         -1.04300796        0.015874
        71         -1.04301189        0.015874
        72         -1.04301566        0.015874
        73         -1.04301735        0.015874
        74         -1.04302022        0.015874
        75         -1.04302388        0.015874
        76         -1.04302546        0.015874
        77         -1.04302677        0.015874
        78         -1.04302717        0.015874
        79         -1.04304113        0.015874
        80         -1.04304781        0.015874
        81         -1.04304968        0.015874
        82         -1.04305246        0.015874
        83         -1.04305258        0.015874
        84         -1.04305263        0.015874
        85         -1.04305983        0.015874
        86         -1.04306011        0.012599
        87         -1.04306162        0.012599
        88         -1.04306220        0.012599
        89         -1.04306515        0.012599
        90         -1.04306955        0.012599
        91         -1.04306987        0.012599
        92         -1.04307201        0.012599
        93         -1.04307203        0.012599
        94         -1.04307364        0.012599
        95         -1.04307459        0.012599
        96         -1.04307615        0.012599
        97         -1.04307659        0.012599
        98         -1.04307722        0.012599
        99         -1.04307774        0.012599
       100         -1.04307898        0.012599
       101         -1.04308194        0.012599
       102         -1.04308355        0.012599
       103         -1.04308393        0.012599
       104         -1.04308541        0.007937
       105         -1.04308555        0.007937
       106         -1.04308607        0.007937
       107         -1.04308689        0.007937
       108         -1.04308788        0.007937
       109         -1.04308879        0.006300
       110         -1.04308949        0.006300
       111         -1.04309039        0.006300
       112         -1.04309063        0.006300
       113         -1.04309071        0.006300
       114         -1.04309194        0.006300
       115         -1.04309231        0.006300
       116         -1.04309358        0.006300
       117         -1.04309400        0.006300
       118         -1.04309487        0.006300
       119         -1.04309587        0.006300
       120         -1.04309621        0.006300
       121         -1.04309621        0.006300
       122         -1.04309627        0.006300
       123         -1.04309754        0.006300
       124         -1.04309777        0.006300
       125         -1.04309828        0.006300
       126         -1.04309857        0.006300
       127         -1.04309878        0.006300
       128         -1.04309918        0.006300
       129         -1.04309928        0.006300
       130         -1.04309946        0.006300
       131         -1.04310011        0.006300
       132         -1.04310055        0.006300
       133         -1.04310072        0.006300
       134         -1.04310079        0.006300
       135         -1.04310084        0.006300
       136         -1.04310098        0.006300
       137         -1.04310101        0.005000
       138         -1.04310121        0.003969
       139         -1.04310189        0.003969
       140         -1.04310203        0.003969
       141         -1.04310239        0.003969
       142         -1.04310263        0.003969
       143         -1.04310274        0.003969
       144         -1.04310276        0.003150
       145         -1.04310283        0.003150
       146         -1.04310305        0.002500
       147         -1.04310319        0.002500
       148         -1.04310328        0.001984
       149         -1.04310330        0.001984
       150         -1.04310344        0.001984
       151         -1.04310345        0.001984
       152         -1.04310349        0.001984
       153         -1.04310360        0.001984
       154         -1.04310365        0.001984
       155         -1.04310369        0.001575
       156         -1.04310369        0.001575
       157         -1.04310381        0.001575
       158         -1.04310386        0.001575
       159         -1.04310387        0.001575
       160         -1.04310388        0.001575
       161         -1.04310388        0.001575
       162         -1.04310394        0.001575
       163         -1.04310396        0.001575
       164         -1.04310397        0.001575
       165         -1.04310403        0.001575
       166         -1.04310407        0.001575
       167         -1.04310407        0.001575
       168         -1.04310408        0.001575
       169         -1.04310410        0.001575
       170         -1.04310411        0.001575
       171         -1.04310422        0.001575
       172         -1.04310424        0.001575
       173         -1.04310426        0.001575
       174         -1.04310426        0.001575
       175         -1.04310427        0.001575
       176         -1.04310429        0.001575
       177         -1.04310435        0.001250
       178         -1.04310436        0.000992
       179         -1.04310440        0.000992
       180         -1.04310441        0.000992
       181         -1.04310443        0.000992
       182         -1.04310444        0.000992
       183         -1.04310446        0.000992
       184         -1.04310448        0.000992
       185         -1.04310449        0.000992
       186         -1.04310450        0.000992
       187         -1.04310450        0.000992
       188         -1.04310451        0.000787
       189         -1.04310452        0.000787
       190         -1.04310453        0.000787
       191         -1.04310453        0.000787
       192         -1.04310454        0.000787
       193         -1.04310455        0.000787
       194         -1.04310456        0.000787
       195         -1.04310457        0.000787
       196         -1.04310457        0.000787
       197         -1.04310457        0.000787
       198         -1.04310457        0.000787
       199         -1.04310459        0.000787
       200         -1.04310459        0.000787
       201         -1.04310460        0.000787
       202         -1.04310461        0.000787
       203         -1.04310461        0.000787
       204         -1.04310462        0.000787
       205         -1.04310463        0.000787
       206         -1.04310464        0.000787
       207         -1.04310464        0.000787
       208         -1.04310464        0.000787
       209         -1.04310465        0.000787
       210         -1.04310465        0.000787
       211         -1.04310466        0.000787
       212         -1.04310467        0.000787
       213         -1.04310467        0.000787
       214         -1.04310467        0.000787
       215         -1.04310468        0.000787
       216         -1.04310468        0.000787
       217         -1.04310469        0.000787
       218         -1.04310470        0.000787
       219         -1.04310471        0.000787
       220         -1.04310471        0.000787
       221         -1.04310471        0.000787
       222         -1.04310472        0.000787
       223         -1.04310473        0.000496
       224         -1.04310473        0.000394
       225         -1.04310473        0.000394
       226         -1.04310473        0.000394
       227         -1.04310474        0.000313
       228         -1.04310474        0.000313
       229         -1.04310474        0.000313
       230         -1.04310474        0.000313
       231         -1.04310474        0.000313
       232         -1.04310474        0.000313
       233         -1.04310474        0.000248
       234         -1.04310475        0.000248
       235         -1.04310475        0.000248
       236         -1.04310475        0.000248
       237         -1.04310475        0.000248
       238         -1.04310475        0.000248
       239         -1.04310475        0.000248
       240         -1.04310475        0.000248
       241         -1.04310476        0.000248
       242         -1.04310476        0.000248
       243         -1.04310476        0.000248
       244         -1.04310476        0.000248
       245         -1.04310476        0.000248
       246         -1.04310476        0.000197
       247         -1.04310476        0.000197
       248         -1.04310476        0.000197
       249         -1.04310476        0.000197
       250         -1.04310476        0.000197
       251         -1.04310476        0.000156
       252         -1.04310477        0.000156
       253         -1.04310477        0.000156
       254         -1.04310477        0.000156
       255         -1.04310477        0.000156
       256         -1.04310477        0.000156
       257         -1.04310477        0.000156
       258         -1.04310477        0.000156
       259         -1.04310477        0.000124
       260         -1.04310477        0.000124
       261         -1.04310477        0.000124
       262         -1.04310477        0.000124
       263         -1.04310477        0.000124
       264         -1.04310477        0.000124
       265         -1.04310477        0.000124
       266         -1.04310477        0.000124
       267         -1.04310477        0.000124
       268         -1.04310477        0.000124
       269         -1.04310477        0.000124
       270         -1.04310477        0.000124
       271         -1.04310477        0.000124
       272         -1.04310477        0.000124
       273         -1.04310477        0.000124
       274         -1.04310477        0.000124
       275         -1.04310477        0.000124
       276         -1.04310477        0.000124
       277         -1.04310477        0.000124
       278         -1.04310477        0.000124
       279         -1.04310477        0.000124
       280         -1.04310477        0.000124
       281         -1.04310477        0.000124
       282         -1.04310478        0.000124
       283         -1.04310478        0.000124
       284         -1.04310478        0.000124
       285         -1.04310478        0.000124
       286         -1.04310478        0.000124
       287         -1.04310478        0.000124
       288         -1.04310478        0.000124
       289         -1.04310478        0.000098
       290         -1.04310478        0.000098
       291         -1.04310478        0.000098
       292         -1.04310478        0.000098
       293         -1.04310478        0.000078
       294         -1.04310478        0.000078
       295         -1.04310478        0.000078
       296         -1.04310478        0.000078
       297         -1.04310478        0.000078
       298         -1.04310478        0.000062
       299         -1.04310478        0.000062
       300         -1.04310478        0.000062
       301         -1.04310478        0.000062
       302         -1.04310478        0.000062
       303         -1.04310478        0.000062
       304         -1.04310478        0.000062
       305         -1.04310478        0.000062
       306         -1.04310478        0.000062
       307         -1.04310478        0.000062
       308         -1.04310478        0.000062
       309         -1.04310478        0.000062
       310         -1.04310478        0.000062
       311         -1.04310478        0.000062
       312         -1.04310478        0.000062
       313         -1.04310478        0.000062
       314         -1.04310478        0.000062
       315         -1.04310478        0.000062
       316         -1.04310478        0.000049
       317         -1.04310478        0.000049
       318         -1.04310478        0.000049
       319         -1.04310478        0.000049
       320         -1.04310478        0.000049
       321         -1.04310478        0.000049
       322         -1.04310478        0.000049
       323         -1.04310478        0.000049
       324         -1.04310478        0.000049
       325         -1.04310478        0.000049
       326         -1.04310478        0.000039
       327         -1.04310478        0.000039
       328         -1.04310478        0.000039
       329         -1.04310478        0.000039
       330         -1.04310478        0.000039
       331         -1.04310478        0.000039
       332         -1.04310478        0.000039
       333         -1.04310478        0.000039
       334         -1.04310478        0.000039
       335         -1.04310478        0.000031
       336         -1.04310478        0.000031
       337         -1.04310478        0.000031
       338         -1.04310478        0.000031
       339         -1.04310478        0.000031
       340         -1.04310478        0.000031
       341         -1.04310478        0.000031
       342         -1.04310478        0.000031
       343         -1.04310478        0.000031
       344         -1.04310478        0.000031
       345         -1.04310478        0.000031
       346         -1.04310478        0.000031
       347         -1.04310478        0.000031
       348         -1.04310478        0.000031
       349         -1.04310478        0.000031
       350         -1.04310478        0.000031
       351         -1.04310478        0.000031
       352         -1.04310478        0.000031
       353         -1.04310478        0.000031
       354         -1.04310478        0.000031
       355         -1.04310478        0.000031
       356         -1.04310478        0.000031
       357         -1.04310478        0.000031
       358         -1.04310478        0.000031
       359         -1.04310478        0.000031
       360         -1.04310478        0.000031
       361         -1.04310478        0.000031
       362         -1.04310478        0.000031
       363         -1.04310478        0.000031
       364         -1.04310478        0.000031
       365         -1.04310478        0.000031
       366         -1.04310478        0.000031
       367         -1.04310478        0.000031
       368         -1.04310478        0.000031
       369         -1.04310478        0.000031
       370         -1.04310478        0.000031
       371         -1.04310478        0.000031
       372         -1.04310478        0.000031
       373         -1.04310478        0.000031
       374         -1.04310478        0.000031
       375         -1.04310478        0.000031
       376         -1.04310478        0.000031
       377         -1.04310478        0.000031
       378         -1.04310478        0.000025
       379         -1.04310478        0.000025
       380         -1.04310478        0.000025
       381         -1.04310478        0.000025
       382         -1.04310478        0.000025
       383         -1.04310478        0.000025
       384         -1.04310478        0.000025
       385         -1.04310478        0.000025
       386         -1.04310478        0.000025
       387         -1.04310478        0.000025
       388         -1.04310478        0.000025
       389         -1.04310478        0.000025
       390         -1.04310478        0.000025
       391         -1.04310478        0.000020
       392         -1.04310478        0.000020
       393         -1.04310478        0.000020
       394         -1.04310478        0.000020
       395         -1.04310478        0.000020
       396         -1.04310478        0.000020
       397         -1.04310478        0.000012
       398         -1.04310478        0.000012
       399         -1.04310478        0.000012
       400         -1.04310478        0.000012
       401         -1.04310478        0.000012
       402         -1.04310478        0.000012
       403         -1.04310478        0.000012
       404         -1.04310478        0.000012
       405         -1.04310478        0.000012
       406         -1.04310478        0.000012
       407         -1.04310478        0.000012
       408         -1.04310478        0.000012
       409         -1.04310478        0.000012
       410         -1.04310478        0.000012
       411         -1.04310478        0.000012
       412         -1.04310478        0.000012
       413         -1.04310478        0.000012
       414         -1.04310478        0.000012
       415         -1.04310478        0.000012
       416         -1.04310478        0.000012
       417         -1.04310478        0.000012
       418         -1.04310478        0.000012
       419         -1.04310478        0.000012
       420         -1.04310478        0.000012
       421         -1.04310478        0.000012
       422         -1.04310478        0.000012
       423         -1.04310478        0.000012
       424         -1.04310478        0.000012
       425         -1.04310478        0.000012
       426         -1.04310478        0.000012
       427         -1.04310478        0.000010
       428         -1.04310478        0.000008
       429         -1.04310478        0.000008
       430         -1.04310478        0.000008
       431         -1.04310478        0.000008
       432         -1.04310478        0.000008
       433         -1.04310478        0.000006
       434         -1.04310478        0.000006
       435         -1.04310478        0.000006
       436         -1.04310478        0.000006
       437         -1.04310478        0.000006
       438         -1.04310478        0.000005
       439         -1.04310478        0.000004
       440         -1.04310478        0.000004
       441         -1.04310478        0.000004
       442         -1.04310478        0.000004
       443         -1.04310478        0.000004
       444         -1.04310478        0.000004
       445         -1.04310478        0.000004
       446         -1.04310478        0.000004
       447         -1.04310478        0.000004
       448         -1.04310478        0.000004
       449         -1.04310478        0.000004
       450         -1.04310478        0.000003
       451         -1.04310478        0.000002
       452         -1.04310478        0.000002
       453         -1.04310478        0.000002
       454         -1.04310478        0.000002
       455         -1.04310478        0.000002
       456         -1.04310478        0.000002
       457         -1.04310478        0.000002
       458         -1.04310478        0.000002
       459         -1.04310478        0.000002
       460         -1.04310478        0.000002
       461         -1.04310478        0.000002
       462         -1.04310478        0.000002
       463         -1.04310478        0.000002
       464         -1.04310478        0.000002
       465         -1.04310478        0.000002
       466         -1.04310478        0.000002
       467         -1.04310478        0.000002
       468         -1.04310478        0.000002
       469         -1.04310478        0.000002
       470         -1.04310478        0.000002
       471         -1.04310478        0.000002
       472         -1.04310478        0.000002
       473         -1.04310478        0.000002
       474         -1.04310478        0.000002
       475         -1.04310478        0.000002
       476         -1.04310478        0.000002
       477         -1.04310478        0.000002
       478         -1.04310478        0.000002
       479         -1.04310478        0.000002
       480         -1.04310478        0.000002
       481         -1.04310478        0.000002
       482         -1.04310478        0.000002
       483         -1.04310478        0.000002
       484         -1.04310478        0.000002
       485         -1.04310478        0.000002
       486         -1.04310478        0.000002
       487         -1.04310478        0.000002
       488         -1.04310478        0.000002
       489         -1.04310478        0.000002
       490         -1.04310478        0.000002
       491         -1.04310478        0.000002
       492         -1.04310478        0.000002
       493         -1.04310478        0.000002
       494         -1.04310478        0.000002
       495         -1.04310478        0.000002
       496         -1.04310478        0.000001
       497         -1.04310478        0.000001
       498         -1.04310478        0.000001
       499         -1.04310478        0.000001
       500         -1.04310478        0.000001

 Reached Convergence

 WFN1                     :
 --------------------------
 Total WFN1 energy  =          -1.0431047791
 1-Electron energy  =          -1.7579316232
 2-Electron energy  =           0.4772344638
 Correlation energy =          -0.1209986725
 DFT XC energy      =           0.0000000000
 Entropy energy     =           0.0000000000
 Nuclear energy     =           0.3585910527

 conventional Hartree-Fock:
 --------------------------
 Total SCF energy  =          -0.9772776270
 2-Electron energy =           0.5430616160

                WFN1 Final Natural orbital energies and occupations
                ---------------------------------------------------

              Alpha       Beta            Alpha       Beta  
            --------    --------        --------    --------
       1      0.0000      0.0000          0.8843      0.8843
       2      0.0000      0.0000          0.0976      0.0976
       3      0.0000      0.0000          0.0095      0.0095
       4      0.0000      0.0000          0.0086      0.0086

             WFN1 Final Correlation function energies and occupations
             --------------------------------------------------------

              Alpha       Beta            Alpha       Beta  
            --------    --------        --------    --------
       1      0.0000      0.0000          1.0000      1.0000
       2      0.0000      0.0000          0.0000      0.0000
       3      0.0000      0.0000          0.0000      0.0000
       4      0.0000      0.0000          0.0000      0.0000

                WFN1 Final alpha-alpha 2-matrix occupation numbers
                --------------------------------------------------


 global array: g_momo1[1:4,1:4],  handle: -990 

            1           2           3           4  
       ----------- ----------- ----------- -----------
   1       0.00000     0.00000     0.00000    -0.00000
   2       0.00000     0.00000     0.00000     0.00000
   3       0.00000     0.00000     0.00000    -0.00000
   4      -0.00000     0.00000    -0.00000     0.00000

                 WFN1 Final beta-beta 2-matrix occupation numbers
                 ------------------------------------------------


 global array: g_momo2[1:4,1:4],  handle: -989 

            1           2           3           4  
       ----------- ----------- ----------- -----------
   1       0.00000     0.00000     0.00000    -0.00000
   2       0.00000     0.00000     0.00000     0.00000
   3       0.00000     0.00000     0.00000    -0.00000
   4      -0.00000     0.00000    -0.00000     0.00000

                  WFN1 Final alpha Correlation Function Analysis
                  ----------------------------------------------


 global array: Ca[1:4,1:4],  handle: -981 

                     1                       2                       3                       4  
       ----------------------- ----------------------- ----------------------- -----------------------
   1       0.93011,    0.13860    -0.31609,   -0.02400    -0.03959,   -0.09824     0.05818,   -0.02444
   2      -0.14684,   -0.27580    -0.51367,   -0.79629     0.00658,    0.04051    -0.04928,   -0.01777
   3      -0.06088,    0.07595    -0.00320,   -0.00047    -0.65728,   -0.42530    -0.52487,   -0.31958
   4       0.07717,    0.05126     0.00119,    0.03948     0.40845,    0.45538    -0.52949,   -0.57905

                   WFN1 Final beta Correlation Function Analysis
                   ---------------------------------------------


 global array: Cb[1:4,1:4],  handle: -980 

                     1                       2                       3                       4  
       ----------------------- ----------------------- ----------------------- -----------------------
   1       0.93011,    0.13860    -0.31609,   -0.02400    -0.03959,   -0.09824     0.05818,   -0.02444
   2      -0.14684,   -0.27580    -0.51367,   -0.79629     0.00658,    0.04051    -0.04928,   -0.01777
   3      -0.06088,    0.07595    -0.00320,   -0.00047    -0.65728,   -0.42530    -0.52487,   -0.31958
   4       0.07717,    0.05126     0.00119,    0.03948     0.40845,    0.45538    -0.52949,   -0.57905

                     WFN1 Final Alpha Natural Orbital Analysis
                     -----------------------------------------

 Vector    1  Occ=8.843116D-01  E= 0.000000D+00
              MO Center=  0.0D+00,  0.0D+00, -2.9D-07, r^2= 1.3D+00
   Bfn.  Coefficient  Atom+Function         Bfn.  Coefficient  Atom+Function  
  ----- ------------  ---------------      ----- ------------  ---------------
     2      0.407176  1 H  s                  4      0.407176  2 H  s          
     1      0.247723  1 H  s                  3      0.247722  2 H  s          

 Vector    2  Occ=9.763052D-02  E= 0.000000D+00
              MO Center=  0.0D+00,  0.0D+00,  2.3D-07, r^2= 1.7D+00
   Bfn.  Coefficient  Atom+Function         Bfn.  Coefficient  Atom+Function  
  ----- ------------  ---------------      ----- ------------  ---------------
     2     -0.699110  1 H  s                  4      0.699109  2 H  s          
     1     -0.309459  1 H  s                  3      0.309461  2 H  s          

 Vector    3  Occ=9.474563D-03  E= 0.000000D+00
              MO Center=  0.0D+00,  0.0D+00,  2.8D-06, r^2= 2.2D+00
   Bfn.  Coefficient  Atom+Function         Bfn.  Coefficient  Atom+Function  
  ----- ------------  ---------------      ----- ------------  ---------------
     2     -1.146632  1 H  s                  4      1.146635  2 H  s          
     1      0.893113  1 H  s                  3     -0.893116  2 H  s          

 Vector    4  Occ=8.583333D-03  E= 0.000000D+00
              MO Center=  0.0D+00,  0.0D+00, -2.7D-06, r^2= 1.7D+00
   Bfn.  Coefficient  Atom+Function         Bfn.  Coefficient  Atom+Function  
  ----- ------------  ---------------      ----- ------------  ---------------
     1      0.932631  1 H  s                  3      0.932628  2 H  s          
     2     -0.690889  1 H  s                  4     -0.690886  2 H  s          


                     WFN1 Final Beta Natural Orbital Analysis
                     ----------------------------------------

 Vector    1  Occ=8.843116D-01  E= 0.000000D+00
              MO Center=  0.0D+00,  0.0D+00, -2.9D-07, r^2= 1.3D+00
   Bfn.  Coefficient  Atom+Function         Bfn.  Coefficient  Atom+Function  
  ----- ------------  ---------------      ----- ------------  ---------------
     2      0.407176  1 H  s                  4      0.407176  2 H  s          
     1      0.247723  1 H  s                  3      0.247722  2 H  s          

 Vector    2  Occ=9.763052D-02  E= 0.000000D+00
              MO Center=  0.0D+00,  0.0D+00,  2.3D-07, r^2= 1.7D+00
   Bfn.  Coefficient  Atom+Function         Bfn.  Coefficient  Atom+Function  
  ----- ------------  ---------------      ----- ------------  ---------------
     2     -0.699110  1 H  s                  4      0.699109  2 H  s          
     1     -0.309459  1 H  s                  3      0.309461  2 H  s          

 Vector    3  Occ=9.474563D-03  E= 0.000000D+00
              MO Center=  0.0D+00,  0.0D+00,  2.8D-06, r^2= 2.2D+00
   Bfn.  Coefficient  Atom+Function         Bfn.  Coefficient  Atom+Function  
  ----- ------------  ---------------      ----- ------------  ---------------
     2     -1.146632  1 H  s                  4      1.146635  2 H  s          
     1      0.893113  1 H  s                  3     -0.893116  2 H  s          

 Vector    4  Occ=8.583333D-03  E= 0.000000D+00
              MO Center=  0.0D+00,  0.0D+00, -2.7D-06, r^2= 1.7D+00
   Bfn.  Coefficient  Atom+Function         Bfn.  Coefficient  Atom+Function  
  ----- ------------  ---------------      ----- ------------  ---------------
     1      0.932631  1 H  s                  3      0.932628  2 H  s          
     2     -0.690889  1 H  s                  4     -0.690886  2 H  s          


 Task  times  cpu:       15.9s     wall:       21.3s
 Summary of allocated global arrays
-----------------------------------
  No active global arrays



                         GA Statistics for process    0
                         ------------------------------

       create   destroy   get      put      acc     scatter   gather  read&inc
calls:   44       44     1.16e+07 2.41e+04 3.17e+04    0        0       11     
number of processes/call 1.00e+00 1.00e+00 1.00e+00 0.00e+00 0.00e+00
bytes total:             1.49e+09 4.06e+06 5.06e+06 0.00e+00 0.00e+00 8.80e+01
bytes remote:            0.00e+00 0.00e+00 0.00e+00 0.00e+00 0.00e+00 0.00e+00
Max memory consumed for GA by this process: 10624 bytes
MA_summarize_allocated_blocks: starting scan ...
MA_summarize_allocated_blocks: scan completed: 0 heap blocks, 0 stack blocks
MA usage statistics:

	allocation statistics:
					      heap	     stack
					      ----	     -----
	current number of blocks	         0	         0
	maximum number of blocks	        19	        17
	current total bytes		         0	         0
	maximum total bytes		   3204344	  22508664
	maximum total K-bytes		      3205	     22509
	maximum total M-bytes		         4	        23


                                NWChem Input Module
                                -------------------





                                     CITATION
                                     --------
                Please cite the following reference when publishing
                           results obtained with NWChem:

                 M. Valiev, E.J. Bylaska, N. Govind, K. Kowalski,
              T.P. Straatsma, H.J.J. van Dam, D. Wang, J. Nieplocha,
                        E. Apra, T.L. Windus, W.A. de Jong
                 "NWChem: a comprehensive and scalable open-source
                  solution for large scale molecular simulations"
                      Comput. Phys. Commun. 181, 1477 (2010)
                           doi:10.1016/j.cpc.2010.04.018

                                      AUTHORS
                                      -------
          E. Apra, E. J. Bylaska, W. A. de Jong, N. Govind, K. Kowalski,
       T. P. Straatsma, M. Valiev, H. J. J. van Dam, D. Wang, T. L. Windus,
        J. Hammond, J. Autschbach, K. Bhaskaran-Nair, J. Brabec, K. Lopata,
    S. A. Fischer, S. Krishnamoorthy, M. Jacquelin, W. Ma, M. Klemm, O. Villa,
      Y. Chen, V. Anisimov, F. Aquino, S. Hirata, M. T. Hackler, V. Konjkov,
      T. Risthaus, M. Malagoli, A. Marenich, A. Otero-de-la-Roza, J. Mullin,
        P. Nichols, R. Peverati, J. Pittner, Y. Zhao, P.-D. Fan, A. Fonari,
       M. Williamson, R. J. Harrison, J. R. Rehr, M. Dupuis, D. Silverstein,
    D. M. A. Smith, J. Nieplocha, V. Tipparaju, M. Krishnan, B. E. Van Kuiken,
        A. Vazquez-Mayagoitia, L. Jensen, M. Swart, Q. Wu, T. Van Voorhis,
     A. A. Auer, M. Nooijen, L. D. Crosby, E. Brown, G. Cisneros, G. I. Fann,
   H. Fruchtl, J. Garza, K. Hirao, R. A. Kendall, J. A. Nichols, K. Tsemekhman,
    K. Wolinski, J. Anchell, D. E. Bernholdt, P. Borowski, T. Clark, D. Clerc,
   H. Dachsel, M. J. O. Deegan, K. Dyall, D. Elwood, E. Glendening, M. Gutowski,
   A. C. Hess, J. Jaffe, B. G. Johnson, J. Ju, R. Kobayashi, R. Kutteh, Z. Lin,
   R. Littlefield, X. Long, B. Meng, T. Nakajima, S. Niu, L. Pollack, M. Rosing,
   K. Glaesemann, G. Sandrone, M. Stave, H. Taylor, G. Thomas, J. H. van Lenthe,
                               A. T. Wong, Z. Zhang.

 Total times  cpu:       15.9s     wall:       21.3s
