 argument  1 = input-wf.nw



============================== echo of input deck ==============================
echo
start wfn1_dat
geometry units au noautoz
  H 0 0 -3.34434600000000000000
  H 0 0  3.34434600000000000000
  symmetry cs
end
basis
  H library 6-31g
end
set wfn1:input_vectors "atomic"
set wfn1:solver "monte-carlo"
set wfn1:print_error F
set wfn1:t_initial 0.1
#set wfn1:corr_expr "wfn1_mx"
set wfn1:corr_expr "wfn1c"
set wfn1:t_bath 0.0
set wfn1:maxit  20000
task wfn1 energy
================================================================================


                                         
                                         


              Northwest Computational Chemistry Package (NWChem) 6.8
              ------------------------------------------------------


                    Environmental Molecular Sciences Laboratory
                       Pacific Northwest National Laboratory
                                Richland, WA 99352

                              Copyright (c) 1994-2015
                       Pacific Northwest National Laboratory
                            Battelle Memorial Institute

             NWChem is an open-source computational chemistry package
                        distributed under the terms of the
                      Educational Community License (ECL) 2.0
             A copy of the license is included with this distribution
                              in the LICENSE.TXT file

                                  ACKNOWLEDGMENT
                                  --------------

            This software and its documentation were developed at the
            EMSL at Pacific Northwest National Laboratory, a multiprogram
            national laboratory, operated for the U.S. Department of Energy
            by Battelle under Contract Number DE-AC05-76RL01830. Support
            for this work was provided by the Department of Energy Office
            of Biological and Environmental Research, Office of Basic
            Energy Sciences, and the Office of Advanced Scientific Computing.


           Job information
           ---------------

    hostname        = erato
    program         = ../../../bin/LINUX64/nwchem
    date            = Mon Mar  1 01:45:48 2021

    compiled        = Sun_Feb_28_18:02:42_2021
    source          = /home/hvandam/nwchem-1-wfn1
    nwchem branch   = Development
    nwchem revision = nwchem_on_git-124-gad72d19fff205e319ffbbf2bca37a04ded6ad57b
    ga revision     = nwchem_on_git-124-gad72d19
    use scalapack   = F
    input           = input-wf.nw
    prefix          = wfn1_dat.
    data base       = ./wfn1_dat.db
    status          = startup
    nproc           =        1
    time left       =     -1s



           Memory information
           ------------------

    heap     =   13107198 doubles =    100.0 Mbytes
    stack    =   13107195 doubles =    100.0 Mbytes
    global   =   26214400 doubles =    200.0 Mbytes (distinct from heap & stack)
    total    =   52428793 doubles =    400.0 Mbytes
    verify   = yes
    hardfail = no 


           Directory information
           ---------------------

  0 permanent = .
  0 scratch   = .




                                NWChem Input Module
                                -------------------


 Turning off AUTOSYM since
 SYMMETRY directive was detected!



                             Geometry "geometry" -> ""
                             -------------------------

 Output coordinates in a.u. (scale by  1.000000000 to convert to a.u.)

  No.       Tag          Charge          X              Y              Z
 ---- ---------------- ---------- -------------- -------------- --------------
    1 H                    1.0000     0.00000000     0.00000000    -3.34434600
    2 H                    1.0000     0.00000000     0.00000000     3.34434600

      Atomic Mass 
      ----------- 

      H                  1.007825


 Effective nuclear repulsion energy (a.u.)       0.1495060619

            Nuclear Dipole moment (a.u.) 
            ----------------------------
        X                 Y               Z
 ---------------- ---------------- ----------------
     0.0000000000     0.0000000000     0.0000000000

      Symmetry information
      --------------------

 Group name             Cs        
 Group number              2
 Group order               2
 No. of unique centers     1

      Symmetry unique atoms

     1


            XYZ format geometry
            -------------------
     2
 geometry
 H                     0.00000000     0.00000000    -1.76975182
 H                     0.00000000     0.00000000     1.76975182

                      Basis "ao basis" -> "" (cartesian)
                      -----
  H (Hydrogen)
  ------------
            Exponent  Coefficients 
       -------------- ---------------------------------------------------------
  1 S  1.87311370E+01  0.033495
  1 S  2.82539370E+00  0.234727
  1 S  6.40121700E-01  0.813757

  2 S  1.61277800E-01  1.000000



 Summary of "ao basis" -> "" (cartesian)
 ------------------------------------------------------------------------------
       Tag                 Description            Shells   Functions and Types
 ---------------- ------------------------------  ------  ---------------------
 H                           6-31g                   2        2   2s



                                NWChem WFN1 Module
                                ------------------



          No. of electrons :     2
           Alpha electrons :     1
            Beta electrons :     1
          Charge           :     0
          Spin multiplicity:     1

 HvD: wfn1_inpdft
 HvD: nquad_task =                     1
 HvD: iangquad   =                     0
 HvD: gridtype   = user      
 HvD: leb        =  T
 HvD: radgrid    = murakn    
 HvD: trunc_neigh=  T
 HvD: lssw       =  T
 HvD: whichssw   = erf1    
 HvD: mxnrad     =                     0
 HvD: mxnang     =                     0
 HVD: wfn1: movecs_in  = atomic                                                                                                                                                                                                                                                          
 HVD: wfn1: movecs_out = ./wfn1_dat.movecs                                                                                                                                                                                                                                               

      Superposition of Atomic Density Guess
      -------------------------------------

 Sum of atomic energies:          -0.99646508

      Non-variational initial energy
      ------------------------------

 Total energy =      -0.682153
 1-e energy   =      -1.295478
 2-e energy   =       0.463819
 HOMO         =      -0.199036
 LUMO         =      -0.183228

 iteration              energy           error
 ---------              ------           -----
         0         -0.88102905        0.080000
         1         -0.88692442        0.080000
         2         -0.88694106        0.080000
         3         -0.89323049        0.080000
         4         -0.89391592        0.080000
         5         -0.90105716        0.080000
         6         -0.90428601        0.080000
         7         -0.90480773        0.080000
         8         -0.90748565        0.080000
         9         -0.91335431        0.080000
        10         -0.91914333        0.080000
        11         -0.91993489        0.080000
        12         -0.92264132        0.080000
        13         -0.92516869        0.080000
        14         -0.92581121        0.080000
        15         -0.92631138        0.080000
        16         -0.92822985        0.080000
        17         -0.92956652        0.080000
        18         -0.93081283        0.080000
        19         -0.93086713        0.080000
        20         -0.93474754        0.080000
        21         -0.93476751        0.080000
        22         -0.93530702        0.080000
        23         -0.93569524        0.080000
        24         -0.93633994        0.080000
        25         -0.94016981        0.080000
        26         -0.94250636        0.080000
        27         -0.94270621        0.080000
        28         -0.94287106        0.080000
        29         -0.94299031        0.080000
        30         -0.94337363        0.080000
        31         -0.94386936        0.080000
        32         -0.94456232        0.080000
        33         -0.94482831        0.080000
        34         -0.94565707        0.080000
        35         -0.94623512        0.080000
        36         -0.94639968        0.080000
        37         -0.94668445        0.080000
        38         -0.94698626        0.080000
        39         -0.94709099        0.080000
        40         -0.94747323        0.080000
        41         -0.94770528        0.080000
        42         -0.94777299        0.080000
        43         -0.94783397        0.080000
        44         -0.94792594        0.080000
        45         -0.94799794        0.080000
        46         -0.94803228        0.080000
        47         -0.94803542        0.063496
        48         -0.94805777        0.063496
        49         -0.94805904        0.063496
        50         -0.94805994        0.063496
        51         -0.94811270        0.063496
        52         -0.94811295        0.050397
        53         -0.94812205        0.050397
        54         -0.94813385        0.040000
        55         -0.94814517        0.040000
        56         -0.94815762        0.040000
        57         -0.94817032        0.040000
        58         -0.94817488        0.040000
        59         -0.94817490        0.040000
        60         -0.94817768        0.040000
        61         -0.94818697        0.040000
        62         -0.94819090        0.031748
        63         -0.94819129        0.031748
        64         -0.94819146        0.031748
        65         -0.94819190        0.012599
        66         -0.94819502        0.012599
        67         -0.94819566        0.010000
        68         -0.94819831        0.010000
        69         -0.94820062        0.010000
        70         -0.94820187        0.010000
        71         -0.94820208        0.010000
        72         -0.94820248        0.010000
        73         -0.94820321        0.007937
        74         -0.94820478        0.007937
        75         -0.94820531        0.007937
        76         -0.94820540        0.007937
        77         -0.94820593        0.007937
        78         -0.94820689        0.007937
        79         -0.94820691        0.007937
        80         -0.94820732        0.007937
        81         -0.94820834        0.007937
        82         -0.94820866        0.006300
        83         -0.94820938        0.006300
        84         -0.94820946        0.006300
        85         -0.94820966        0.006300
        86         -0.94821004        0.006300
        87         -0.94821063        0.006300
        88         -0.94821071        0.006300
        89         -0.94821092        0.006300
        90         -0.94821097        0.005000
        91         -0.94821098        0.005000
        92         -0.94821129        0.005000
        93         -0.94821134        0.005000
        94         -0.94821161        0.005000
        95         -0.94821166        0.005000
        96         -0.94821170        0.003969
        97         -0.94821184        0.003969
        98         -0.94821205        0.003969
        99         -0.94821219        0.003969
       100         -0.94821224        0.003150
       101         -0.94821231        0.002500
       102         -0.94821232        0.002500
       103         -0.94821238        0.002500
       104         -0.94821244        0.002500
       105         -0.94821254        0.002500
       106         -0.94821263        0.002500
       107         -0.94821265        0.001984
       108         -0.94821266        0.001984
       109         -0.94821268        0.001984
       110         -0.94821270        0.001984
       111         -0.94821271        0.001984
       112         -0.94821271        0.000992
       113         -0.94821273        0.000992
       114         -0.94821273        0.000787
       115         -0.94821273        0.000787
       116         -0.94821274        0.000625
       117         -0.94821274        0.000625
       118         -0.94821274        0.000496
       119         -0.94821274        0.000496
       120         -0.94821274        0.000496
       121         -0.94821275        0.000496
       122         -0.94821275        0.000496
       123         -0.94821275        0.000496
       124         -0.94821275        0.000496
       125         -0.94821276        0.000496
       126         -0.94821276        0.000394
       127         -0.94821276        0.000394
       128         -0.94821276        0.000394
       129         -0.94821276        0.000394
       130         -0.94821276        0.000394
       131         -0.94821276        0.000394
       132         -0.94821276        0.000248
       133         -0.94821276        0.000248
       134         -0.94821276        0.000248
       135         -0.94821276        0.000197
       136         -0.94821276        0.000156
       137         -0.94821276        0.000156
       138         -0.94821276        0.000156
       139         -0.94821276        0.000156
       140         -0.94821276        0.000156
       141         -0.94821276        0.000156
       142         -0.94821276        0.000098
       143         -0.94821276        0.000078
       144         -0.94821276        0.000078
       145         -0.94821276        0.000078
       146         -0.94821276        0.000078
       147         -0.94821276        0.000078
       148         -0.94821276        0.000078
       149         -0.94821276        0.000078
       150         -0.94821276        0.000078
       151         -0.94821276        0.000078
       152         -0.94821276        0.000062
       153         -0.94821276        0.000062
       154         -0.94821276        0.000049
       155         -0.94821276        0.000039
       156         -0.94821276        0.000039
       157         -0.94821276        0.000039
       158         -0.94821276        0.000039
       159         -0.94821276        0.000031
       160         -0.94821276        0.000031
       161         -0.94821276        0.000016
       162         -0.94821276        0.000016
       163         -0.94821276        0.000016
       164         -0.94821276        0.000016
       165         -0.94821276        0.000016
       166         -0.94821276        0.000012
       167         -0.94821276        0.000010
       168         -0.94821276        0.000010
       169         -0.94821276        0.000010
       170         -0.94821276        0.000010
       171         -0.94821276        0.000010
       172         -0.94821276        0.000008
       173         -0.94821276        0.000008
       174         -0.94821276        0.000008
       175         -0.94821276        0.000008
       176         -0.94821276        0.000008
       177         -0.94821276        0.000006
       178         -0.94821276        0.000006
       179         -0.94821276        0.000006
       180         -0.94821276        0.000006
       181         -0.94821276        0.000006
       182         -0.94821276        0.000006
       183         -0.94821276        0.000006
       184         -0.94821276        0.000006
       185         -0.94821276        0.000006
       186         -0.94821276        0.000006
       187         -0.94821276        0.000006
       188         -0.94821276        0.000003
       189         -0.94821276        0.000002
       190         -0.94821276        0.000002
       191         -0.94821276        0.000002
       192         -0.94821276        0.000002
       193         -0.94821276        0.000002
       194         -0.94821276        0.000002
       195         -0.94821276        0.000002
       196         -0.94821276        0.000002
       197         -0.94821276        0.000002
       198         -0.94821276        0.000002
       199         -0.94821276        0.000002
       200         -0.94821276        0.000001
       201         -0.94821276        0.000001
       202         -0.94821276        0.000001
       203         -0.94821276        0.000001
       204         -0.94821276        0.000001
       205         -0.94821276        0.000001

 Reached Convergence

 WFN1                     :
 --------------------------
 Total WFN1 energy  =          -0.9482127631
 1-Electron energy  =          -1.2267966573
 2-Electron energy  =           0.3701370413
 Correlation energy =          -0.2410592090
 DFT XC energy      =           0.0000000000
 Entropy energy     =           0.0000000000
 Nuclear energy     =           0.1495060619

 conventional Hartree-Fock:
 --------------------------
 Total SCF energy  =          -0.8591219950
 2-Electron energy =           0.4592278094

                WFN1 Final Natural orbital energies and occupations
                ---------------------------------------------------

              Alpha       Beta            Alpha       Beta  
            --------    --------        --------    --------
       1      0.0000      0.0000          0.5183      0.5183
       2      0.0000      0.0000          0.4483      0.4483
       3      0.0000      0.0000          0.0177      0.0177
       4      0.0000      0.0000          0.0157      0.0157

             WFN1 Final Correlation function energies and occupations
             --------------------------------------------------------

              Alpha       Beta            Alpha       Beta  
            --------    --------        --------    --------
       1      0.0000      0.0000          1.0000      1.0000
       2      0.0000      0.0000          0.0000      0.0000
       3      0.0000      0.0000          0.0000      0.0000
       4      0.0000      0.0000          0.0000      0.0000

                WFN1 Final alpha-alpha 2-matrix occupation numbers
                --------------------------------------------------


 global array: g_momo1[1:4,1:4],  handle: -990 

            1           2           3           4  
       ----------- ----------- ----------- -----------
   1       0.00000    -0.00000     0.00000     0.00000
   2       0.00000     0.00000     0.00000     0.00000
   3      -0.00000     0.00000     0.00000     0.00000
   4       0.00000    -0.00000     0.00000    -0.00000

                 WFN1 Final beta-beta 2-matrix occupation numbers
                 ------------------------------------------------


 global array: g_momo2[1:4,1:4],  handle: -989 

            1           2           3           4  
       ----------- ----------- ----------- -----------
   1       0.00000    -0.00000     0.00000     0.00000
   2       0.00000     0.00000     0.00000     0.00000
   3      -0.00000     0.00000     0.00000     0.00000
   4       0.00000    -0.00000     0.00000    -0.00000

                  WFN1 Final alpha Correlation Function Analysis
                  ----------------------------------------------


 global array: Ca[1:4,1:4],  handle: -977 

                     1                       2                       3                       4  
       ----------------------- ----------------------- ----------------------- -----------------------
   1      -0.61743,   -0.37022    -0.58710,   -0.34040    -0.12393,   -0.01952    -0.00044,   -0.07364
   2       0.46273,    0.48396    -0.50181,   -0.53239     0.06785,    0.09062    -0.05889,    0.01102
   3      -0.08378,    0.10328    -0.03989,   -0.00459     0.61170,   -0.46224     0.49270,   -0.38743
   4      -0.12440,    0.01467     0.00629,   -0.05037     0.42974,   -0.44601    -0.54350,    0.55022

                   WFN1 Final beta Correlation Function Analysis
                   ---------------------------------------------


 global array: Cb[1:4,1:4],  handle: -976 

                     1                       2                       3                       4  
       ----------------------- ----------------------- ----------------------- -----------------------
   1      -0.61743,   -0.37022    -0.58710,   -0.34040    -0.12393,   -0.01952    -0.00044,   -0.07364
   2       0.46273,    0.48396    -0.50181,   -0.53239     0.06785,    0.09062    -0.05889,    0.01102
   3      -0.08378,    0.10328    -0.03989,   -0.00459     0.61170,   -0.46224     0.49270,   -0.38743
   4      -0.12440,    0.01467     0.00629,   -0.05037     0.42974,   -0.44601    -0.54350,    0.55022

                     WFN1 Final Alpha Natural Orbital Analysis
                     -----------------------------------------

 Vector    1  Occ=5.182820D-01  E= 0.000000D+00
              MO Center=  0.0D+00,  0.0D+00, -5.4D-07, r^2= 4.0D+00
   Bfn.  Coefficient  Atom+Function         Bfn.  Coefficient  Atom+Function  
  ----- ------------  ---------------      ----- ------------  ---------------
     2     -0.516431  1 H  s                  4     -0.516431  2 H  s          
     1     -0.244126  1 H  s                  3     -0.244126  2 H  s          

 Vector    2  Occ=4.483404D-01  E= 0.000000D+00
              MO Center=  0.0D+00,  0.0D+00,  5.5D-07, r^2= 4.0D+00
   Bfn.  Coefficient  Atom+Function         Bfn.  Coefficient  Atom+Function  
  ----- ------------  ---------------      ----- ------------  ---------------
     2      0.510795  1 H  s                  4     -0.510795  2 H  s          
     1      0.263534  1 H  s                  3     -0.263535  2 H  s          

 Vector    3  Occ=1.768645D-02  E= 0.000000D+00
              MO Center=  0.0D+00,  0.0D+00,  1.8D-06, r^2= 4.1D+00
   Bfn.  Coefficient  Atom+Function         Bfn.  Coefficient  Atom+Function  
  ----- ------------  ---------------      ----- ------------  ---------------
     1     -0.899449  1 H  s                  3     -0.899450  2 H  s          
     2      0.760904  1 H  s                  4      0.760905  2 H  s          

 Vector    4  Occ=1.569112D-02  E= 0.000000D+00
              MO Center=  0.0D+00,  0.0D+00, -1.8D-06, r^2= 4.4D+00
   Bfn.  Coefficient  Atom+Function         Bfn.  Coefficient  Atom+Function  
  ----- ------------  ---------------      ----- ------------  ---------------
     1     -0.909922  1 H  s                  3      0.909921  2 H  s          
     2      0.813331  1 H  s                  4     -0.813330  2 H  s          


                     WFN1 Final Beta Natural Orbital Analysis
                     ----------------------------------------

 Vector    1  Occ=5.182820D-01  E= 0.000000D+00
              MO Center=  0.0D+00,  0.0D+00, -5.4D-07, r^2= 4.0D+00
   Bfn.  Coefficient  Atom+Function         Bfn.  Coefficient  Atom+Function  
  ----- ------------  ---------------      ----- ------------  ---------------
     2     -0.516431  1 H  s                  4     -0.516431  2 H  s          
     1     -0.244126  1 H  s                  3     -0.244126  2 H  s          

 Vector    2  Occ=4.483404D-01  E= 0.000000D+00
              MO Center=  0.0D+00,  0.0D+00,  5.5D-07, r^2= 4.0D+00
   Bfn.  Coefficient  Atom+Function         Bfn.  Coefficient  Atom+Function  
  ----- ------------  ---------------      ----- ------------  ---------------
     2      0.510795  1 H  s                  4     -0.510795  2 H  s          
     1      0.263534  1 H  s                  3     -0.263535  2 H  s          

 Vector    3  Occ=1.768645D-02  E= 0.000000D+00
              MO Center=  0.0D+00,  0.0D+00,  1.8D-06, r^2= 4.1D+00
   Bfn.  Coefficient  Atom+Function         Bfn.  Coefficient  Atom+Function  
  ----- ------------  ---------------      ----- ------------  ---------------
     1     -0.899449  1 H  s                  3     -0.899450  2 H  s          
     2      0.760904  1 H  s                  4      0.760905  2 H  s          

 Vector    4  Occ=1.569112D-02  E= 0.000000D+00
              MO Center=  0.0D+00,  0.0D+00, -1.8D-06, r^2= 4.4D+00
   Bfn.  Coefficient  Atom+Function         Bfn.  Coefficient  Atom+Function  
  ----- ------------  ---------------      ----- ------------  ---------------
     1     -0.909922  1 H  s                  3      0.909921  2 H  s          
     2      0.813331  1 H  s                  4     -0.813330  2 H  s          


 Task  times  cpu:        8.4s     wall:       11.3s
 Summary of allocated global arrays
-----------------------------------
  No active global arrays



                         GA Statistics for process    0
                         ------------------------------

       create   destroy   get      put      acc     scatter   gather  read&inc
calls:   44       44     6.37e+06 1.34e+04 1.75e+04    0        0       11     
number of processes/call 1.00e+00 1.00e+00 1.00e+00 0.00e+00 0.00e+00
bytes total:             8.18e+08 2.23e+06 2.78e+06 0.00e+00 0.00e+00 8.80e+01
bytes remote:            0.00e+00 0.00e+00 0.00e+00 0.00e+00 0.00e+00 0.00e+00
Max memory consumed for GA by this process: 10624 bytes
MA_summarize_allocated_blocks: starting scan ...
MA_summarize_allocated_blocks: scan completed: 0 heap blocks, 0 stack blocks
MA usage statistics:

	allocation statistics:
					      heap	     stack
					      ----	     -----
	current number of blocks	         0	         0
	maximum number of blocks	        19	        17
	current total bytes		         0	         0
	maximum total bytes		   3204344	  22508664
	maximum total K-bytes		      3205	     22509
	maximum total M-bytes		         4	        23


                                NWChem Input Module
                                -------------------





                                     CITATION
                                     --------
                Please cite the following reference when publishing
                           results obtained with NWChem:

                 M. Valiev, E.J. Bylaska, N. Govind, K. Kowalski,
              T.P. Straatsma, H.J.J. van Dam, D. Wang, J. Nieplocha,
                        E. Apra, T.L. Windus, W.A. de Jong
                 "NWChem: a comprehensive and scalable open-source
                  solution for large scale molecular simulations"
                      Comput. Phys. Commun. 181, 1477 (2010)
                           doi:10.1016/j.cpc.2010.04.018

                                      AUTHORS
                                      -------
          E. Apra, E. J. Bylaska, W. A. de Jong, N. Govind, K. Kowalski,
       T. P. Straatsma, M. Valiev, H. J. J. van Dam, D. Wang, T. L. Windus,
        J. Hammond, J. Autschbach, K. Bhaskaran-Nair, J. Brabec, K. Lopata,
    S. A. Fischer, S. Krishnamoorthy, M. Jacquelin, W. Ma, M. Klemm, O. Villa,
      Y. Chen, V. Anisimov, F. Aquino, S. Hirata, M. T. Hackler, V. Konjkov,
      T. Risthaus, M. Malagoli, A. Marenich, A. Otero-de-la-Roza, J. Mullin,
        P. Nichols, R. Peverati, J. Pittner, Y. Zhao, P.-D. Fan, A. Fonari,
       M. Williamson, R. J. Harrison, J. R. Rehr, M. Dupuis, D. Silverstein,
    D. M. A. Smith, J. Nieplocha, V. Tipparaju, M. Krishnan, B. E. Van Kuiken,
        A. Vazquez-Mayagoitia, L. Jensen, M. Swart, Q. Wu, T. Van Voorhis,
     A. A. Auer, M. Nooijen, L. D. Crosby, E. Brown, G. Cisneros, G. I. Fann,
   H. Fruchtl, J. Garza, K. Hirao, R. A. Kendall, J. A. Nichols, K. Tsemekhman,
    K. Wolinski, J. Anchell, D. E. Bernholdt, P. Borowski, T. Clark, D. Clerc,
   H. Dachsel, M. J. O. Deegan, K. Dyall, D. Elwood, E. Glendening, M. Gutowski,
   A. C. Hess, J. Jaffe, B. G. Johnson, J. Ju, R. Kobayashi, R. Kutteh, Z. Lin,
   R. Littlefield, X. Long, B. Meng, T. Nakajima, S. Niu, L. Pollack, M. Rosing,
   K. Glaesemann, G. Sandrone, M. Stave, H. Taylor, G. Thomas, J. H. van Lenthe,
                               A. T. Wong, Z. Zhang.

 Total times  cpu:        8.4s     wall:       11.3s
