 argument  1 = input-wf.nw



============================== echo of input deck ==============================
echo
start wfn1_dat
geometry units au noautoz
  H 0 0 -1.49434600000000000000
  H 0 0  1.49434600000000000000
  symmetry cs
end
basis
  H library 6-31g
end
set wfn1:input_vectors "atomic"
set wfn1:solver "monte-carlo"
set wfn1:print_error F
set wfn1:t_initial 0.1
#set wfn1:corr_expr "wfn1_mx"
set wfn1:corr_expr "wfn1c"
set wfn1:t_bath 0.0
set wfn1:maxit  20000
task wfn1 energy
================================================================================


                                         
                                         


              Northwest Computational Chemistry Package (NWChem) 6.8
              ------------------------------------------------------


                    Environmental Molecular Sciences Laboratory
                       Pacific Northwest National Laboratory
                                Richland, WA 99352

                              Copyright (c) 1994-2015
                       Pacific Northwest National Laboratory
                            Battelle Memorial Institute

             NWChem is an open-source computational chemistry package
                        distributed under the terms of the
                      Educational Community License (ECL) 2.0
             A copy of the license is included with this distribution
                              in the LICENSE.TXT file

                                  ACKNOWLEDGMENT
                                  --------------

            This software and its documentation were developed at the
            EMSL at Pacific Northwest National Laboratory, a multiprogram
            national laboratory, operated for the U.S. Department of Energy
            by Battelle under Contract Number DE-AC05-76RL01830. Support
            for this work was provided by the Department of Energy Office
            of Biological and Environmental Research, Office of Basic
            Energy Sciences, and the Office of Advanced Scientific Computing.


           Job information
           ---------------

    hostname        = erato
    program         = ../../../bin/LINUX64/nwchem
    date            = Mon Mar  1 01:35:17 2021

    compiled        = Sun_Feb_28_18:02:42_2021
    source          = /home/hvandam/nwchem-1-wfn1
    nwchem branch   = Development
    nwchem revision = nwchem_on_git-124-gad72d19fff205e319ffbbf2bca37a04ded6ad57b
    ga revision     = nwchem_on_git-124-gad72d19
    use scalapack   = F
    input           = input-wf.nw
    prefix          = wfn1_dat.
    data base       = ./wfn1_dat.db
    status          = startup
    nproc           =        1
    time left       =     -1s



           Memory information
           ------------------

    heap     =   13107200 doubles =    100.0 Mbytes
    stack    =   13107197 doubles =    100.0 Mbytes
    global   =   26214400 doubles =    200.0 Mbytes (distinct from heap & stack)
    total    =   52428797 doubles =    400.0 Mbytes
    verify   = yes
    hardfail = no 


           Directory information
           ---------------------

  0 permanent = .
  0 scratch   = .




                                NWChem Input Module
                                -------------------


 Turning off AUTOSYM since
 SYMMETRY directive was detected!



                             Geometry "geometry" -> ""
                             -------------------------

 Output coordinates in a.u. (scale by  1.000000000 to convert to a.u.)

  No.       Tag          Charge          X              Y              Z
 ---- ---------------- ---------- -------------- -------------- --------------
    1 H                    1.0000     0.00000000     0.00000000    -1.49434600
    2 H                    1.0000     0.00000000     0.00000000     1.49434600

      Atomic Mass 
      ----------- 

      H                  1.007825


 Effective nuclear repulsion energy (a.u.)       0.3345945317

            Nuclear Dipole moment (a.u.) 
            ----------------------------
        X                 Y               Z
 ---------------- ---------------- ----------------
     0.0000000000     0.0000000000     0.0000000000

      Symmetry information
      --------------------

 Group name             Cs        
 Group number              2
 Group order               2
 No. of unique centers     1

      Symmetry unique atoms

     1


            XYZ format geometry
            -------------------
     2
 geometry
 H                     0.00000000     0.00000000    -0.79077391
 H                     0.00000000     0.00000000     0.79077391

                      Basis "ao basis" -> "" (cartesian)
                      -----
  H (Hydrogen)
  ------------
            Exponent  Coefficients 
       -------------- ---------------------------------------------------------
  1 S  1.87311370E+01  0.033495
  1 S  2.82539370E+00  0.234727
  1 S  6.40121700E-01  0.813757

  2 S  1.61277800E-01  1.000000



 Summary of "ao basis" -> "" (cartesian)
 ------------------------------------------------------------------------------
       Tag                 Description            Shells   Functions and Types
 ---------------- ------------------------------  ------  ---------------------
 H                           6-31g                   2        2   2s



                                NWChem WFN1 Module
                                ------------------



          No. of electrons :     2
           Alpha electrons :     1
            Beta electrons :     1
          Charge           :     0
          Spin multiplicity:     1

 HvD: wfn1_inpdft
 HvD: nquad_task =                     1
 HvD: iangquad   =                     0
 HvD: gridtype   = user      
 HvD: leb        =  T
 HvD: radgrid    = murakn    
 HvD: trunc_neigh=  T
 HvD: lssw       =  T
 HvD: whichssw   = erf1    
 HvD: mxnrad     =                     0
 HvD: mxnang     =                     0
 HVD: wfn1: movecs_in  = atomic                                                                                                                                                                                                                                                          
 HVD: wfn1: movecs_out = ./wfn1_dat.movecs                                                                                                                                                                                                                                               

      Superposition of Atomic Density Guess
      -------------------------------------

 Sum of atomic energies:          -0.99646508

      Non-variational initial energy
      ------------------------------

 Total energy =      -0.718446
 1-e energy   =      -1.660768
 2-e energy   =       0.607728
 HOMO         =      -0.323596
 LUMO         =      -0.042719

 iteration              energy           error
 ---------              ------           -----
         0         -0.99692394        0.080000
         1         -1.00199717        0.080000
         2         -1.00532635        0.080000
         3         -1.00563888        0.080000
         4         -1.00655565        0.080000
         5         -1.00789478        0.080000
         6         -1.00857977        0.080000
         7         -1.00972424        0.080000
         8         -1.01034773        0.080000
         9         -1.01302790        0.080000
        10         -1.01455338        0.080000
        11         -1.01503058        0.080000
        12         -1.01519005        0.080000
        13         -1.01587060        0.080000
        14         -1.01777857        0.080000
        15         -1.01998613        0.080000
        16         -1.02022348        0.080000
        17         -1.02214670        0.080000
        18         -1.02226705        0.080000
        19         -1.02227467        0.080000
        20         -1.02375010        0.080000
        21         -1.02438058        0.080000
        22         -1.02442314        0.080000
        23         -1.02442835        0.080000
        24         -1.02451900        0.080000
        25         -1.02471813        0.080000
        26         -1.02482313        0.080000
        27         -1.02547547        0.080000
        28         -1.02570202        0.080000
        29         -1.02609287        0.080000
        30         -1.02634256        0.080000
        31         -1.02683813        0.080000
        32         -1.02710871        0.080000
        33         -1.02761207        0.080000
        34         -1.02781647        0.080000
        35         -1.02788210        0.080000
        36         -1.02840204        0.080000
        37         -1.02864101        0.080000
        38         -1.02874214        0.080000
        39         -1.02879596        0.080000
        40         -1.02885436        0.080000
        41         -1.02893026        0.080000
        42         -1.02926803        0.080000
        43         -1.02955627        0.080000
        44         -1.02959018        0.080000
        45         -1.02959881        0.080000
        46         -1.02960602        0.063496
        47         -1.02961776        0.063496
        48         -1.02962938        0.050397
        49         -1.02963070        0.050397
        50         -1.02965819        0.050397
        51         -1.02967487        0.050397
        52         -1.02968386        0.040000
        53         -1.02968733        0.031748
        54         -1.02970104        0.031748
        55         -1.02971388        0.031748
        56         -1.02972659        0.031748
        57         -1.02973084        0.031748
        58         -1.02973978        0.031748
        59         -1.02974063        0.025198
        60         -1.02974467        0.020000
        61         -1.02974470        0.015874
        62         -1.02974597        0.015874
        63         -1.02974848        0.015874
        64         -1.02974915        0.010000
        65         -1.02974980        0.010000
        66         -1.02975036        0.010000
        67         -1.02975179        0.006300
        68         -1.02975253        0.006300
        69         -1.02975266        0.006300
        70         -1.02975331        0.006300
        71         -1.02975379        0.006300
        72         -1.02975390        0.005000
        73         -1.02975408        0.005000
        74         -1.02975413        0.005000
        75         -1.02975429        0.005000
        76         -1.02975431        0.003969
        77         -1.02975436        0.003969
        78         -1.02975446        0.003969
        79         -1.02975465        0.003969
        80         -1.02975473        0.003150
        81         -1.02975475        0.003150
        82         -1.02975477        0.003150
        83         -1.02975480        0.003150
        84         -1.02975484        0.003150
        85         -1.02975485        0.003150
        86         -1.02975489        0.003150
        87         -1.02975492        0.003150
        88         -1.02975497        0.003150
        89         -1.02975497        0.001575
        90         -1.02975498        0.001575
        91         -1.02975501        0.001575
        92         -1.02975501        0.001575
        93         -1.02975501        0.000787
        94         -1.02975501        0.000787
        95         -1.02975502        0.000787
        96         -1.02975503        0.000787
        97         -1.02975503        0.000787
        98         -1.02975504        0.000625
        99         -1.02975505        0.000625
       100         -1.02975505        0.000625
       101         -1.02975505        0.000496
       102         -1.02975506        0.000496
       103         -1.02975506        0.000496
       104         -1.02975506        0.000496
       105         -1.02975506        0.000496
       106         -1.02975506        0.000496
       107         -1.02975507        0.000496
       108         -1.02975507        0.000496
       109         -1.02975507        0.000496
       110         -1.02975507        0.000394
       111         -1.02975507        0.000394
       112         -1.02975507        0.000394
       113         -1.02975508        0.000394
       114         -1.02975508        0.000394
       115         -1.02975508        0.000394
       116         -1.02975508        0.000394
       117         -1.02975508        0.000394
       118         -1.02975508        0.000394
       119         -1.02975508        0.000394
       120         -1.02975508        0.000394
       121         -1.02975509        0.000394
       122         -1.02975509        0.000394
       123         -1.02975509        0.000394
       124         -1.02975509        0.000313
       125         -1.02975509        0.000313
       126         -1.02975509        0.000313
       127         -1.02975509        0.000248
       128         -1.02975509        0.000248
       129         -1.02975509        0.000248
       130         -1.02975509        0.000248
       131         -1.02975509        0.000248
       132         -1.02975509        0.000248
       133         -1.02975509        0.000197
       134         -1.02975509        0.000197
       135         -1.02975509        0.000197
       136         -1.02975509        0.000197
       137         -1.02975509        0.000197
       138         -1.02975509        0.000197
       139         -1.02975509        0.000197
       140         -1.02975509        0.000197
       141         -1.02975509        0.000197
       142         -1.02975510        0.000197
       143         -1.02975510        0.000197
       144         -1.02975510        0.000124
       145         -1.02975510        0.000124
       146         -1.02975510        0.000124
       147         -1.02975510        0.000124
       148         -1.02975510        0.000124
       149         -1.02975510        0.000124
       150         -1.02975510        0.000124
       151         -1.02975510        0.000124
       152         -1.02975510        0.000098
       153         -1.02975510        0.000078
       154         -1.02975510        0.000078
       155         -1.02975510        0.000062
       156         -1.02975510        0.000062
       157         -1.02975510        0.000062
       158         -1.02975510        0.000062
       159         -1.02975510        0.000062
       160         -1.02975510        0.000062
       161         -1.02975510        0.000062
       162         -1.02975510        0.000049
       163         -1.02975510        0.000049
       164         -1.02975510        0.000049
       165         -1.02975510        0.000049
       166         -1.02975510        0.000049
       167         -1.02975510        0.000039
       168         -1.02975510        0.000039
       169         -1.02975510        0.000039
       170         -1.02975510        0.000039
       171         -1.02975510        0.000039
       172         -1.02975510        0.000039
       173         -1.02975510        0.000039
       174         -1.02975510        0.000039
       175         -1.02975510        0.000039
       176         -1.02975510        0.000039
       177         -1.02975510        0.000039
       178         -1.02975510        0.000039
       179         -1.02975510        0.000039
       180         -1.02975510        0.000039
       181         -1.02975510        0.000039
       182         -1.02975510        0.000039
       183         -1.02975510        0.000039
       184         -1.02975510        0.000039
       185         -1.02975510        0.000031
       186         -1.02975510        0.000031
       187         -1.02975510        0.000031
       188         -1.02975510        0.000031
       189         -1.02975510        0.000031
       190         -1.02975510        0.000031
       191         -1.02975510        0.000031
       192         -1.02975510        0.000031
       193         -1.02975510        0.000025
       194         -1.02975510        0.000025
       195         -1.02975510        0.000025
       196         -1.02975510        0.000020
       197         -1.02975510        0.000020
       198         -1.02975510        0.000020
       199         -1.02975510        0.000020
       200         -1.02975510        0.000020
       201         -1.02975510        0.000020
       202         -1.02975510        0.000020
       203         -1.02975510        0.000020
       204         -1.02975510        0.000020
       205         -1.02975510        0.000016
       206         -1.02975510        0.000016
       207         -1.02975510        0.000016
       208         -1.02975510        0.000016
       209         -1.02975510        0.000016
       210         -1.02975510        0.000012
       211         -1.02975510        0.000012
       212         -1.02975510        0.000012
       213         -1.02975510        0.000012
       214         -1.02975510        0.000012
       215         -1.02975510        0.000012
       216         -1.02975510        0.000010
       217         -1.02975510        0.000010
       218         -1.02975510        0.000010
       219         -1.02975510        0.000010
       220         -1.02975510        0.000010
       221         -1.02975510        0.000010
       222         -1.02975510        0.000010
       223         -1.02975510        0.000010
       224         -1.02975510        0.000010
       225         -1.02975510        0.000010
       226         -1.02975510        0.000010
       227         -1.02975510        0.000010
       228         -1.02975510        0.000010
       229         -1.02975510        0.000008
       230         -1.02975510        0.000008
       231         -1.02975510        0.000008
       232         -1.02975510        0.000008
       233         -1.02975510        0.000008
       234         -1.02975510        0.000008
       235         -1.02975510        0.000008
       236         -1.02975510        0.000008
       237         -1.02975510        0.000008
       238         -1.02975510        0.000008
       239         -1.02975510        0.000008
       240         -1.02975510        0.000008
       241         -1.02975510        0.000008
       242         -1.02975510        0.000008
       243         -1.02975510        0.000008
       244         -1.02975510        0.000008
       245         -1.02975510        0.000008
       246         -1.02975510        0.000008
       247         -1.02975510        0.000008
       248         -1.02975510        0.000008
       249         -1.02975510        0.000008
       250         -1.02975510        0.000008
       251         -1.02975510        0.000008
       252         -1.02975510        0.000008
       253         -1.02975510        0.000008
       254         -1.02975510        0.000008
       255         -1.02975510        0.000008
       256         -1.02975510        0.000008
       257         -1.02975510        0.000008
       258         -1.02975510        0.000006
       259         -1.02975510        0.000006
       260         -1.02975510        0.000005
       261         -1.02975510        0.000005
       262         -1.02975510        0.000005
       263         -1.02975510        0.000005
       264         -1.02975510        0.000005
       265         -1.02975510        0.000005
       266         -1.02975510        0.000005
       267         -1.02975510        0.000005
       268         -1.02975510        0.000005
       269         -1.02975510        0.000005
       270         -1.02975510        0.000005
       271         -1.02975510        0.000005
       272         -1.02975510        0.000005
       273         -1.02975510        0.000002
       274         -1.02975510        0.000002
       275         -1.02975510        0.000002
       276         -1.02975510        0.000002
       277         -1.02975510        0.000002
       278         -1.02975510        0.000002
       279         -1.02975510        0.000002
       280         -1.02975510        0.000002
       281         -1.02975510        0.000002
       282         -1.02975510        0.000002
       283         -1.02975510        0.000002
       284         -1.02975510        0.000002
       285         -1.02975510        0.000002
       286         -1.02975510        0.000002
       287         -1.02975510        0.000002
       288         -1.02975510        0.000002
       289         -1.02975510        0.000002
       290         -1.02975510        0.000002
       291         -1.02975510        0.000002
       292         -1.02975510        0.000002
       293         -1.02975510        0.000002
       294         -1.02975510        0.000002
       295         -1.02975510        0.000002
       296         -1.02975510        0.000002
       297         -1.02975510        0.000002
       298         -1.02975510        0.000002
       299         -1.02975510        0.000002
       300         -1.02975510        0.000002
       301         -1.02975510        0.000002
       302         -1.02975510        0.000002
       303         -1.02975510        0.000002
       304         -1.02975510        0.000002
       305         -1.02975510        0.000002
       306         -1.02975510        0.000002
       307         -1.02975510        0.000002
       308         -1.02975510        0.000002
       309         -1.02975510        0.000002
       310         -1.02975510        0.000002
       311         -1.02975510        0.000002
       312         -1.02975510        0.000002
       313         -1.02975510        0.000002
       314         -1.02975510        0.000002
       315         -1.02975510        0.000002
       316         -1.02975510        0.000002
       317         -1.02975510        0.000002
       318         -1.02975510        0.000002
       319         -1.02975510        0.000002
       320         -1.02975510        0.000002
       321         -1.02975510        0.000002
       322         -1.02975510        0.000002
       323         -1.02975510        0.000002
       324         -1.02975510        0.000001
       325         -1.02975510        0.000001
       326         -1.02975510        0.000001
       327         -1.02975510        0.000001
       328         -1.02975510        0.000001
       329         -1.02975510        0.000001
       330         -1.02975510        0.000001
       331         -1.02975510        0.000001
       332         -1.02975510        0.000001
       333         -1.02975510        0.000001

 Reached Convergence

 WFN1                     :
 --------------------------
 Total WFN1 energy  =          -1.0297550983
 1-Electron energy  =          -1.6934949092
 2-Electron energy  =           0.4642609987
 Correlation energy =          -0.1351157195
 DFT XC energy      =           0.0000000000
 Entropy energy     =           0.0000000000
 Nuclear energy     =           0.3345945317

 conventional Hartree-Fock:
 --------------------------
 Total SCF energy  =          -0.9542340178
 2-Electron energy =           0.5397820792

                WFN1 Final Natural orbital energies and occupations
                ---------------------------------------------------

              Alpha       Beta            Alpha       Beta  
            --------    --------        --------    --------
       1      0.0000      0.0000          0.8583      0.8583
       2      0.0000      0.0000          0.1214      0.1214
       3      0.0000      0.0000          0.0106      0.0106
       4      0.0000      0.0000          0.0096      0.0096

             WFN1 Final Correlation function energies and occupations
             --------------------------------------------------------

              Alpha       Beta            Alpha       Beta  
            --------    --------        --------    --------
       1      0.0000      0.0000          1.0000      1.0000
       2      0.0000      0.0000          0.0000      0.0000
       3      0.0000      0.0000          0.0000      0.0000
       4      0.0000      0.0000          0.0000      0.0000

                WFN1 Final alpha-alpha 2-matrix occupation numbers
                --------------------------------------------------


 global array: g_momo1[1:4,1:4],  handle: -990 

            1           2           3           4  
       ----------- ----------- ----------- -----------
   1       0.00000     0.00000     0.00000     0.00000
   2       0.00000     0.00000    -0.00000     0.00000
   3       0.00000     0.00000    -0.00000     0.00000
   4       0.00000     0.00000    -0.00000     0.00000

                 WFN1 Final beta-beta 2-matrix occupation numbers
                 ------------------------------------------------


 global array: g_momo2[1:4,1:4],  handle: -989 

            1           2           3           4  
       ----------- ----------- ----------- -----------
   1       0.00000     0.00000     0.00000     0.00000
   2       0.00000     0.00000    -0.00000     0.00000
   3       0.00000     0.00000    -0.00000     0.00000
   4       0.00000     0.00000    -0.00000     0.00000

                  WFN1 Final alpha Correlation Function Analysis
                  ----------------------------------------------


 global array: Ca[1:4,1:4],  handle: -977 

                     1                       2                       3                       4  
       ----------------------- ----------------------- ----------------------- -----------------------
   1      -0.38499,   -0.84268     0.21158,    0.28630    -0.06742,    0.10083     0.01331,   -0.00702
   2      -0.10356,   -0.33275    -0.46568,   -0.80888    -0.02574,    0.07865     0.00106,   -0.02368
   3      -0.08977,   -0.05062    -0.01212,   -0.01742    -0.11203,   -0.79345    -0.09715,   -0.58084
   4       0.03077,   -0.09307     0.03173,   -0.02573     0.55655,   -0.16301    -0.76889,    0.24741

                   WFN1 Final beta Correlation Function Analysis
                   ---------------------------------------------


 global array: Cb[1:4,1:4],  handle: -976 

                     1                       2                       3                       4  
       ----------------------- ----------------------- ----------------------- -----------------------
   1      -0.38499,   -0.84268     0.21158,    0.28630    -0.06742,    0.10083     0.01331,   -0.00702
   2      -0.10356,   -0.33275    -0.46568,   -0.80888    -0.02574,    0.07865     0.00106,   -0.02368
   3      -0.08977,   -0.05062    -0.01212,   -0.01742    -0.11203,   -0.79345    -0.09715,   -0.58084
   4       0.03077,   -0.09307     0.03173,   -0.02573     0.55655,   -0.16301    -0.76889,    0.24741

                     WFN1 Final Alpha Natural Orbital Analysis
                     -----------------------------------------

 Vector    1  Occ=8.583267D-01  E= 0.000000D+00
              MO Center=  0.0D+00,  0.0D+00, -6.3D-07, r^2= 1.4D+00
   Bfn.  Coefficient  Atom+Function         Bfn.  Coefficient  Atom+Function  
  ----- ------------  ---------------      ----- ------------  ---------------
     2     -0.419276  1 H  s                  4     -0.419275  2 H  s          
     1     -0.244271  1 H  s                  3     -0.244271  2 H  s          

 Vector    2  Occ=1.214431D-01  E= 0.000000D+00
              MO Center=  0.0D+00,  0.0D+00,  6.0D-07, r^2= 1.8D+00
   Bfn.  Coefficient  Atom+Function         Bfn.  Coefficient  Atom+Function  
  ----- ------------  ---------------      ----- ------------  ---------------
     2     -0.673222  1 H  s                  4      0.673222  2 H  s          
     1     -0.297781  1 H  s                  3      0.297783  2 H  s          

 Vector    3  Occ=1.062130D-02  E= 0.000000D+00
              MO Center=  0.0D+00,  0.0D+00,  4.4D-06, r^2= 2.3D+00
   Bfn.  Coefficient  Atom+Function         Bfn.  Coefficient  Atom+Function  
  ----- ------------  ---------------      ----- ------------  ---------------
     2      1.106385  1 H  s                  4     -1.106389  2 H  s          
     1     -0.899316  1 H  s                  3      0.899320  2 H  s          

 Vector    4  Occ=9.608913D-03  E= 0.000000D+00
              MO Center=  0.0D+00,  0.0D+00, -4.3D-06, r^2= 1.7D+00
   Bfn.  Coefficient  Atom+Function         Bfn.  Coefficient  Atom+Function  
  ----- ------------  ---------------      ----- ------------  ---------------
     1     -0.930207  1 H  s                  3     -0.930202  2 H  s          
     2      0.686720  1 H  s                  4      0.686715  2 H  s          


                     WFN1 Final Beta Natural Orbital Analysis
                     ----------------------------------------

 Vector    1  Occ=8.583267D-01  E= 0.000000D+00
              MO Center=  0.0D+00,  0.0D+00, -6.3D-07, r^2= 1.4D+00
   Bfn.  Coefficient  Atom+Function         Bfn.  Coefficient  Atom+Function  
  ----- ------------  ---------------      ----- ------------  ---------------
     2     -0.419276  1 H  s                  4     -0.419275  2 H  s          
     1     -0.244271  1 H  s                  3     -0.244271  2 H  s          

 Vector    2  Occ=1.214431D-01  E= 0.000000D+00
              MO Center=  0.0D+00,  0.0D+00,  6.0D-07, r^2= 1.8D+00
   Bfn.  Coefficient  Atom+Function         Bfn.  Coefficient  Atom+Function  
  ----- ------------  ---------------      ----- ------------  ---------------
     2     -0.673222  1 H  s                  4      0.673222  2 H  s          
     1     -0.297781  1 H  s                  3      0.297783  2 H  s          

 Vector    3  Occ=1.062130D-02  E= 0.000000D+00
              MO Center=  0.0D+00,  0.0D+00,  4.4D-06, r^2= 2.3D+00
   Bfn.  Coefficient  Atom+Function         Bfn.  Coefficient  Atom+Function  
  ----- ------------  ---------------      ----- ------------  ---------------
     2      1.106385  1 H  s                  4     -1.106389  2 H  s          
     1     -0.899316  1 H  s                  3      0.899320  2 H  s          

 Vector    4  Occ=9.608913D-03  E= 0.000000D+00
              MO Center=  0.0D+00,  0.0D+00, -4.3D-06, r^2= 1.7D+00
   Bfn.  Coefficient  Atom+Function         Bfn.  Coefficient  Atom+Function  
  ----- ------------  ---------------      ----- ------------  ---------------
     1     -0.930207  1 H  s                  3     -0.930202  2 H  s          
     2      0.686720  1 H  s                  4      0.686715  2 H  s          


 Task  times  cpu:       12.0s     wall:       16.2s
 Summary of allocated global arrays
-----------------------------------
  No active global arrays



                         GA Statistics for process    0
                         ------------------------------

       create   destroy   get      put      acc     scatter   gather  read&inc
calls:   44       44     8.70e+06 1.82e+04 2.38e+04    0        0       11     
number of processes/call 1.00e+00 1.00e+00 1.00e+00 0.00e+00 0.00e+00
bytes total:             1.12e+09 3.05e+06 3.80e+06 0.00e+00 0.00e+00 8.80e+01
bytes remote:            0.00e+00 0.00e+00 0.00e+00 0.00e+00 0.00e+00 0.00e+00
Max memory consumed for GA by this process: 10624 bytes
MA_summarize_allocated_blocks: starting scan ...
MA_summarize_allocated_blocks: scan completed: 0 heap blocks, 0 stack blocks
MA usage statistics:

	allocation statistics:
					      heap	     stack
					      ----	     -----
	current number of blocks	         0	         0
	maximum number of blocks	        19	        17
	current total bytes		         0	         0
	maximum total bytes		   3204328	  22508616
	maximum total K-bytes		      3205	     22509
	maximum total M-bytes		         4	        23


                                NWChem Input Module
                                -------------------





                                     CITATION
                                     --------
                Please cite the following reference when publishing
                           results obtained with NWChem:

                 M. Valiev, E.J. Bylaska, N. Govind, K. Kowalski,
              T.P. Straatsma, H.J.J. van Dam, D. Wang, J. Nieplocha,
                        E. Apra, T.L. Windus, W.A. de Jong
                 "NWChem: a comprehensive and scalable open-source
                  solution for large scale molecular simulations"
                      Comput. Phys. Commun. 181, 1477 (2010)
                           doi:10.1016/j.cpc.2010.04.018

                                      AUTHORS
                                      -------
          E. Apra, E. J. Bylaska, W. A. de Jong, N. Govind, K. Kowalski,
       T. P. Straatsma, M. Valiev, H. J. J. van Dam, D. Wang, T. L. Windus,
        J. Hammond, J. Autschbach, K. Bhaskaran-Nair, J. Brabec, K. Lopata,
    S. A. Fischer, S. Krishnamoorthy, M. Jacquelin, W. Ma, M. Klemm, O. Villa,
      Y. Chen, V. Anisimov, F. Aquino, S. Hirata, M. T. Hackler, V. Konjkov,
      T. Risthaus, M. Malagoli, A. Marenich, A. Otero-de-la-Roza, J. Mullin,
        P. Nichols, R. Peverati, J. Pittner, Y. Zhao, P.-D. Fan, A. Fonari,
       M. Williamson, R. J. Harrison, J. R. Rehr, M. Dupuis, D. Silverstein,
    D. M. A. Smith, J. Nieplocha, V. Tipparaju, M. Krishnan, B. E. Van Kuiken,
        A. Vazquez-Mayagoitia, L. Jensen, M. Swart, Q. Wu, T. Van Voorhis,
     A. A. Auer, M. Nooijen, L. D. Crosby, E. Brown, G. Cisneros, G. I. Fann,
   H. Fruchtl, J. Garza, K. Hirao, R. A. Kendall, J. A. Nichols, K. Tsemekhman,
    K. Wolinski, J. Anchell, D. E. Bernholdt, P. Borowski, T. Clark, D. Clerc,
   H. Dachsel, M. J. O. Deegan, K. Dyall, D. Elwood, E. Glendening, M. Gutowski,
   A. C. Hess, J. Jaffe, B. G. Johnson, J. Ju, R. Kobayashi, R. Kutteh, Z. Lin,
   R. Littlefield, X. Long, B. Meng, T. Nakajima, S. Niu, L. Pollack, M. Rosing,
   K. Glaesemann, G. Sandrone, M. Stave, H. Taylor, G. Thomas, J. H. van Lenthe,
                               A. T. Wong, Z. Zhang.

 Total times  cpu:       12.0s     wall:       16.2s
