 argument  1 = input-wf.nw



============================== echo of input deck ==============================
echo
start wfn1_dat
geometry units au noautoz
  H 0 0 -1.19434600000000000000
  H 0 0  1.19434600000000000000
  symmetry cs
end
basis
  H library 6-31g
end
set wfn1:input_vectors "atomic"
set wfn1:solver "monte-carlo"
set wfn1:print_error F
set wfn1:t_initial 0.1
#set wfn1:corr_expr "wfn1_mx"
set wfn1:corr_expr "wfn1c"
set wfn1:t_bath 0.0
set wfn1:maxit  20000
task wfn1 energy
================================================================================


                                         
                                         


              Northwest Computational Chemistry Package (NWChem) 6.8
              ------------------------------------------------------


                    Environmental Molecular Sciences Laboratory
                       Pacific Northwest National Laboratory
                                Richland, WA 99352

                              Copyright (c) 1994-2015
                       Pacific Northwest National Laboratory
                            Battelle Memorial Institute

             NWChem is an open-source computational chemistry package
                        distributed under the terms of the
                      Educational Community License (ECL) 2.0
             A copy of the license is included with this distribution
                              in the LICENSE.TXT file

                                  ACKNOWLEDGMENT
                                  --------------

            This software and its documentation were developed at the
            EMSL at Pacific Northwest National Laboratory, a multiprogram
            national laboratory, operated for the U.S. Department of Energy
            by Battelle under Contract Number DE-AC05-76RL01830. Support
            for this work was provided by the Department of Energy Office
            of Biological and Environmental Research, Office of Basic
            Energy Sciences, and the Office of Advanced Scientific Computing.


           Job information
           ---------------

    hostname        = erato
    program         = ../../../bin/LINUX64/nwchem
    date            = Mon Mar  1 01:31:39 2021

    compiled        = Sun_Feb_28_18:02:42_2021
    source          = /home/hvandam/nwchem-1-wfn1
    nwchem branch   = Development
    nwchem revision = nwchem_on_git-124-gad72d19fff205e319ffbbf2bca37a04ded6ad57b
    ga revision     = nwchem_on_git-124-gad72d19
    use scalapack   = F
    input           = input-wf.nw
    prefix          = wfn1_dat.
    data base       = ./wfn1_dat.db
    status          = startup
    nproc           =        1
    time left       =     -1s



           Memory information
           ------------------

    heap     =   13107198 doubles =    100.0 Mbytes
    stack    =   13107195 doubles =    100.0 Mbytes
    global   =   26214400 doubles =    200.0 Mbytes (distinct from heap & stack)
    total    =   52428793 doubles =    400.0 Mbytes
    verify   = yes
    hardfail = no 


           Directory information
           ---------------------

  0 permanent = .
  0 scratch   = .




                                NWChem Input Module
                                -------------------


 Turning off AUTOSYM since
 SYMMETRY directive was detected!



                             Geometry "geometry" -> ""
                             -------------------------

 Output coordinates in a.u. (scale by  1.000000000 to convert to a.u.)

  No.       Tag          Charge          X              Y              Z
 ---- ---------------- ---------- -------------- -------------- --------------
    1 H                    1.0000     0.00000000     0.00000000    -1.19434600
    2 H                    1.0000     0.00000000     0.00000000     1.19434600

      Atomic Mass 
      ----------- 

      H                  1.007825


 Effective nuclear repulsion energy (a.u.)       0.4186391548

            Nuclear Dipole moment (a.u.) 
            ----------------------------
        X                 Y               Z
 ---------------- ---------------- ----------------
     0.0000000000     0.0000000000     0.0000000000

      Symmetry information
      --------------------

 Group name             Cs        
 Group number              2
 Group order               2
 No. of unique centers     1

      Symmetry unique atoms

     1


            XYZ format geometry
            -------------------
     2
 geometry
 H                     0.00000000     0.00000000    -0.63202073
 H                     0.00000000     0.00000000     0.63202073

                      Basis "ao basis" -> "" (cartesian)
                      -----
  H (Hydrogen)
  ------------
            Exponent  Coefficients 
       -------------- ---------------------------------------------------------
  1 S  1.87311370E+01  0.033495
  1 S  2.82539370E+00  0.234727
  1 S  6.40121700E-01  0.813757

  2 S  1.61277800E-01  1.000000



 Summary of "ao basis" -> "" (cartesian)
 ------------------------------------------------------------------------------
       Tag                 Description            Shells   Functions and Types
 ---------------- ------------------------------  ------  ---------------------
 H                           6-31g                   2        2   2s



                                NWChem WFN1 Module
                                ------------------



          No. of electrons :     2
           Alpha electrons :     1
            Beta electrons :     1
          Charge           :     0
          Spin multiplicity:     1

 HvD: wfn1_inpdft
 HvD: nquad_task =                     1
 HvD: iangquad   =                     0
 HvD: gridtype   = user      
 HvD: leb        =  T
 HvD: radgrid    = murakn    
 HvD: trunc_neigh=  T
 HvD: lssw       =  T
 HvD: whichssw   = erf1    
 HvD: mxnrad     =                     0
 HvD: mxnang     =                     0
 HVD: wfn1: movecs_in  = atomic                                                                                                                                                                                                                                                          
 HVD: wfn1: movecs_out = ./wfn1_dat.movecs                                                                                                                                                                                                                                               

      Superposition of Atomic Density Guess
      -------------------------------------

 Sum of atomic energies:          -0.99646508

      Non-variational initial energy
      ------------------------------

 Total energy =      -0.757526
 1-e energy   =      -1.812630
 2-e energy   =       0.636465
 HOMO         =      -0.390385
 LUMO         =       0.027594

 iteration              energy           error
 ---------              ------           -----
         0         -1.05061120        0.080000
         1         -1.05230766        0.080000
         2         -1.05364657        0.080000
         3         -1.05543265        0.080000
         4         -1.05656150        0.080000
         5         -1.05665659        0.080000
         6         -1.05713873        0.080000
         7         -1.05853215        0.080000
         8         -1.05918739        0.080000
         9         -1.05934619        0.080000
        10         -1.05988900        0.080000
        11         -1.06035451        0.080000
        12         -1.06035629        0.080000
        13         -1.06066363        0.080000
        14         -1.06091813        0.080000
        15         -1.06116810        0.080000
        16         -1.06156368        0.080000
        17         -1.06177279        0.080000
        18         -1.06215578        0.080000
        19         -1.06267418        0.080000
        20         -1.06303512        0.080000
        21         -1.06308334        0.080000
        22         -1.06331076        0.080000
        23         -1.06346679        0.080000
        24         -1.06352895        0.080000
        25         -1.06354420        0.080000
        26         -1.06359531        0.080000
        27         -1.06381941        0.080000
        28         -1.06395914        0.080000
        29         -1.06398971        0.080000
        30         -1.06402811        0.063496
        31         -1.06411403        0.063496
        32         -1.06413192        0.063496
        33         -1.06413989        0.063496
        34         -1.06426813        0.063496
        35         -1.06431403        0.050397
        36         -1.06437511        0.050397
        37         -1.06439898        0.050397
        38         -1.06447490        0.050397
        39         -1.06450031        0.050397
        40         -1.06452176        0.050397
        41         -1.06453369        0.050397
        42         -1.06456282        0.050397
        43         -1.06462246        0.050397
        44         -1.06462354        0.050397
        45         -1.06465714        0.050397
        46         -1.06466737        0.050397
        47         -1.06466791        0.050397
        48         -1.06468481        0.050397
        49         -1.06470941        0.050397
        50         -1.06471389        0.040000
        51         -1.06471918        0.040000
        52         -1.06473576        0.040000
        53         -1.06475481        0.040000
        54         -1.06477828        0.040000
        55         -1.06477895        0.031748
        56         -1.06478999        0.031748
        57         -1.06479230        0.025198
        58         -1.06481227        0.025198
        59         -1.06482476        0.025198
        60         -1.06482901        0.025198
        61         -1.06483260        0.025198
        62         -1.06484719        0.025198
        63         -1.06485161        0.025198
        64         -1.06485597        0.025198
        65         -1.06486524        0.025198
        66         -1.06486699        0.025198
        67         -1.06487701        0.025198
        68         -1.06488225        0.025198
        69         -1.06490122        0.025198
        70         -1.06490862        0.025198
        71         -1.06492452        0.025198
        72         -1.06494206        0.025198
        73         -1.06494328        0.025198
        74         -1.06495178        0.025198
        75         -1.06495732        0.025198
        76         -1.06496016        0.025198
        77         -1.06496051        0.025198
        78         -1.06496382        0.025198
        79         -1.06496413        0.025198
        80         -1.06497388        0.025198
        81         -1.06497532        0.025198
        82         -1.06498870        0.025198
        83         -1.06498907        0.025198
        84         -1.06499022        0.025198
        85         -1.06499631        0.025198
        86         -1.06500244        0.025198
        87         -1.06500491        0.025198
        88         -1.06500559        0.025198
        89         -1.06500626        0.025198
        90         -1.06501333        0.025198
        91         -1.06502092        0.025198
        92         -1.06502172        0.025198
        93         -1.06503136        0.025198
        94         -1.06503788        0.025198
        95         -1.06504689        0.025198
        96         -1.06506174        0.025198
        97         -1.06507214        0.025198
        98         -1.06507704        0.025198
        99         -1.06508081        0.025198
       100         -1.06508265        0.025198
       101         -1.06508289        0.025198
       102         -1.06508675        0.025198
       103         -1.06509436        0.025198
       104         -1.06509579        0.025198
       105         -1.06510650        0.025198
       106         -1.06511597        0.025198
       107         -1.06512102        0.025198
       108         -1.06512798        0.025198
       109         -1.06512821        0.025198
       110         -1.06514256        0.025198
       111         -1.06515344        0.025198
       112         -1.06516239        0.025198
       113         -1.06516405        0.015874
       114         -1.06516695        0.015874
       115         -1.06517036        0.015874
       116         -1.06517275        0.015874
       117         -1.06517375        0.015874
       118         -1.06517485        0.015874
       119         -1.06517869        0.015874
       120         -1.06518179        0.015874
       121         -1.06518350        0.015874
       122         -1.06518624        0.015874
       123         -1.06518989        0.015874
       124         -1.06518998        0.015874
       125         -1.06519243        0.015874
       126         -1.06519273        0.015874
       127         -1.06519488        0.015874
       128         -1.06519555        0.015874
       129         -1.06519559        0.010000
       130         -1.06519876        0.010000
       131         -1.06520070        0.010000
       132         -1.06520236        0.010000
       133         -1.06520363        0.010000
       134         -1.06520554        0.010000
       135         -1.06520679        0.010000
       136         -1.06520695        0.010000
       137         -1.06520709        0.010000
       138         -1.06520789        0.010000
       139         -1.06520800        0.010000
       140         -1.06521249        0.010000
       141         -1.06521317        0.010000
       142         -1.06521614        0.010000
       143         -1.06521770        0.010000
       144         -1.06521940        0.010000
       145         -1.06522235        0.010000
       146         -1.06522294        0.010000
       147         -1.06522706        0.010000
       148         -1.06522869        0.010000
       149         -1.06523090        0.010000
       150         -1.06523199        0.010000
       151         -1.06523266        0.010000
       152         -1.06523389        0.010000
       153         -1.06523808        0.010000
       154         -1.06523863        0.007937
       155         -1.06523919        0.007937
       156         -1.06523959        0.007937
       157         -1.06524037        0.007937
       158         -1.06524226        0.007937
       159         -1.06524243        0.007937
       160         -1.06524380        0.007937
       161         -1.06524448        0.007937
       162         -1.06524667        0.007937
       163         -1.06524691        0.007937
       164         -1.06524790        0.007937
       165         -1.06524889        0.007937
       166         -1.06525081        0.007937
       167         -1.06525098        0.007937
       168         -1.06525271        0.007937
       169         -1.06525381        0.007937
       170         -1.06525390        0.007937
       171         -1.06525633        0.007937
       172         -1.06525769        0.007937
       173         -1.06525777        0.007937
       174         -1.06525800        0.007937
       175         -1.06525954        0.007937
       176         -1.06526003        0.007937
       177         -1.06526056        0.007937
       178         -1.06526065        0.007937
       179         -1.06526164        0.006300
       180         -1.06526175        0.006300
       181         -1.06526221        0.006300
       182         -1.06526237        0.006300
       183         -1.06526303        0.006300
       184         -1.06526536        0.006300
       185         -1.06526572        0.006300
       186         -1.06526682        0.006300
       187         -1.06526712        0.006300
       188         -1.06526789        0.006300
       189         -1.06526816        0.006300
       190         -1.06526866        0.006300
       191         -1.06526880        0.006300
       192         -1.06526912        0.006300
       193         -1.06526997        0.006300
       194         -1.06527053        0.006300
       195         -1.06527255        0.006300
       196         -1.06527417        0.006300
       197         -1.06527442        0.006300
       198         -1.06527448        0.006300
       199         -1.06527553        0.006300
       200         -1.06527707        0.006300
       201         -1.06527785        0.006300
       202         -1.06527785        0.006300
       203         -1.06527873        0.006300
       204         -1.06527954        0.006300
       205         -1.06527954        0.006300
       206         -1.06527979        0.006300
       207         -1.06528080        0.006300
       208         -1.06528084        0.006300
       209         -1.06528132        0.006300
       210         -1.06528302        0.006300
       211         -1.06528431        0.006300
       212         -1.06528448        0.006300
       213         -1.06528564        0.006300
       214         -1.06528609        0.006300
       215         -1.06528727        0.006300
       216         -1.06528753        0.006300
       217         -1.06528811        0.006300
       218         -1.06528813        0.006300
       219         -1.06528887        0.006300
       220         -1.06528888        0.006300
       221         -1.06528938        0.006300
       222         -1.06529012        0.006300
       223         -1.06529172        0.006300
       224         -1.06529174        0.006300
       225         -1.06529258        0.006300
       226         -1.06529267        0.006300
       227         -1.06529294        0.006300
       228         -1.06529368        0.006300
       229         -1.06529402        0.006300
       230         -1.06529578        0.006300
       231         -1.06529629        0.006300
       232         -1.06529666        0.006300
       233         -1.06529682        0.005000
       234         -1.06529686        0.005000
       235         -1.06529755        0.005000
       236         -1.06529786        0.005000
       237         -1.06529793        0.003969
       238         -1.06529801        0.003969
       239         -1.06529814        0.003969
       240         -1.06529845        0.003969
       241         -1.06529909        0.003969
       242         -1.06529925        0.003969
       243         -1.06529968        0.003969
       244         -1.06530039        0.003969
       245         -1.06530040        0.003969
       246         -1.06530058        0.003969
       247         -1.06530069        0.003969
       248         -1.06530082        0.003969
       249         -1.06530146        0.003969
       250         -1.06530191        0.003969
       251         -1.06530202        0.003969
       252         -1.06530208        0.003969
       253         -1.06530234        0.003969
       254         -1.06530241        0.003969
       255         -1.06530275        0.003969
       256         -1.06530290        0.003969
       257         -1.06530359        0.003969
       258         -1.06530364        0.003969
       259         -1.06530383        0.003969
       260         -1.06530403        0.003969
       261         -1.06530406        0.003969
       262         -1.06530436        0.003969
       263         -1.06530443        0.003969
       264         -1.06530446        0.003969
       265         -1.06530459        0.003969
       266         -1.06530464        0.003969
       267         -1.06530474        0.003969
       268         -1.06530505        0.003969
       269         -1.06530523        0.003969
       270         -1.06530547        0.003969
       271         -1.06530558        0.003969
       272         -1.06530578        0.003969
       273         -1.06530587        0.003969
       274         -1.06530615        0.003969
       275         -1.06530644        0.003969
       276         -1.06530657        0.003969
       277         -1.06530697        0.003969
       278         -1.06530736        0.003969
       279         -1.06530742        0.003969
       280         -1.06530773        0.003969
       281         -1.06530778        0.003969
       282         -1.06530799        0.003969
       283         -1.06530824        0.003969
       284         -1.06530856        0.003969
       285         -1.06530857        0.003969
       286         -1.06530930        0.003969
       287         -1.06530940        0.003150
       288         -1.06530964        0.003150
       289         -1.06530971        0.002500
       290         -1.06530973        0.002500
       291         -1.06530978        0.002500
       292         -1.06531001        0.002500
       293         -1.06531003        0.002500
       294         -1.06531012        0.002500
       295         -1.06531013        0.002500
       296         -1.06531015        0.002500
       297         -1.06531033        0.002500
       298         -1.06531040        0.002500
       299         -1.06531041        0.002500
       300         -1.06531054        0.002500
       301         -1.06531068        0.002500
       302         -1.06531073        0.002500
       303         -1.06531083        0.002500
       304         -1.06531109        0.002500
       305         -1.06531113        0.002500
       306         -1.06531122        0.002500
       307         -1.06531143        0.002500
       308         -1.06531147        0.002500
       309         -1.06531148        0.001984
       310         -1.06531149        0.001984
       311         -1.06531150        0.001984
       312         -1.06531150        0.001984
       313         -1.06531153        0.001984
       314         -1.06531174        0.001984
       315         -1.06531175        0.001984
       316         -1.06531186        0.001984
       317         -1.06531187        0.001984
       318         -1.06531188        0.001984
       319         -1.06531201        0.001984
       320         -1.06531210        0.001984
       321         -1.06531233        0.001984
       322         -1.06531235        0.001984
       323         -1.06531257        0.001984
       324         -1.06531265        0.001575
       325         -1.06531279        0.001575
       326         -1.06531279        0.001575
       327         -1.06531283        0.001575
       328         -1.06531289        0.001575
       329         -1.06531290        0.001575
       330         -1.06531291        0.001575
       331         -1.06531309        0.001575
       332         -1.06531317        0.001575
       333         -1.06531320        0.001575
       334         -1.06531327        0.001575
       335         -1.06531332        0.001575
       336         -1.06531345        0.001575
       337         -1.06531349        0.001575
       338         -1.06531356        0.001575
       339         -1.06531357        0.001575
       340         -1.06531374        0.001575
       341         -1.06531380        0.001575
       342         -1.06531384        0.001575
       343         -1.06531385        0.001575
       344         -1.06531391        0.001575
       345         -1.06531391        0.001575
       346         -1.06531407        0.001575
       347         -1.06531414        0.001575
       348         -1.06531420        0.001575
       349         -1.06531425        0.001575
       350         -1.06531429        0.001575
       351         -1.06531436        0.001575
       352         -1.06531441        0.001575
       353         -1.06531455        0.001575
       354         -1.06531456        0.001575
       355         -1.06531458        0.001575
       356         -1.06531463        0.001575
       357         -1.06531465        0.001575
       358         -1.06531475        0.001575
       359         -1.06531482        0.001575
       360         -1.06531497        0.001575
       361         -1.06531501        0.001575
       362         -1.06531503        0.001575
       363         -1.06531513        0.001575
       364         -1.06531514        0.001575
       365         -1.06531517        0.001575
       366         -1.06531522        0.001575
       367         -1.06531528        0.001250
       368         -1.06531531        0.001250
       369         -1.06531535        0.001250
       370         -1.06531536        0.001250
       371         -1.06531538        0.001250
       372         -1.06531538        0.001250
       373         -1.06531546        0.001250
       374         -1.06531551        0.001250
       375         -1.06531553        0.001250
       376         -1.06531560        0.001250
       377         -1.06531562        0.001250
       378         -1.06531565        0.001250
       379         -1.06531570        0.001250
       380         -1.06531576        0.001250
       381         -1.06531578        0.001250
       382         -1.06531582        0.001250
       383         -1.06531593        0.001250
       384         -1.06531594        0.001250
       385         -1.06531597        0.001250
       386         -1.06531599        0.001250
       387         -1.06531599        0.001250
       388         -1.06531603        0.001250
       389         -1.06531608        0.001250
       390         -1.06531609        0.001250
       391         -1.06531611        0.001250
       392         -1.06531616        0.001250
       393         -1.06531619        0.001250
       394         -1.06531619        0.001250
       395         -1.06531621        0.001250
       396         -1.06531623        0.001250
       397         -1.06531625        0.001250
       398         -1.06531629        0.001250
       399         -1.06531632        0.001250
       400         -1.06531634        0.001250
       401         -1.06531640        0.001250
       402         -1.06531649        0.001250
       403         -1.06531650        0.001250
       404         -1.06531657        0.001250
       405         -1.06531664        0.001250
       406         -1.06531665        0.001250
       407         -1.06531667        0.001250
       408         -1.06531668        0.001250
       409         -1.06531669        0.001250
       410         -1.06531670        0.001250
       411         -1.06531676        0.001250
       412         -1.06531678        0.001250
       413         -1.06531679        0.001250
       414         -1.06531684        0.001250
       415         -1.06531684        0.001250
       416         -1.06531686        0.001250
       417         -1.06531689        0.001250
       418         -1.06531692        0.001250
       419         -1.06531697        0.001250
       420         -1.06531698        0.001250
       421         -1.06531699        0.001250
       422         -1.06531700        0.001250
       423         -1.06531701        0.001250
       424         -1.06531713        0.001250
       425         -1.06531713        0.001250
       426         -1.06531716        0.001250
       427         -1.06531719        0.001250
       428         -1.06531721        0.001250
       429         -1.06531725        0.001250
       430         -1.06531725        0.001250
       431         -1.06531727        0.001250
       432         -1.06531729        0.001250
       433         -1.06531731        0.001250
       434         -1.06531734        0.001250
       435         -1.06531738        0.001250
       436         -1.06531739        0.001250
       437         -1.06531740        0.001250
       438         -1.06531741        0.001250
       439         -1.06531743        0.001250
       440         -1.06531745        0.001250
       441         -1.06531745        0.001250
       442         -1.06531745        0.001250
       443         -1.06531746        0.001250
       444         -1.06531749        0.001250
       445         -1.06531753        0.000992
       446         -1.06531754        0.000992
       447         -1.06531754        0.000992
       448         -1.06531754        0.000992
       449         -1.06531755        0.000992
       450         -1.06531758        0.000992
       451         -1.06531762        0.000992
       452         -1.06531762        0.000992
       453         -1.06531763        0.000992
       454         -1.06531767        0.000992
       455         -1.06531767        0.000992
       456         -1.06531768        0.000992
       457         -1.06531769        0.000992
       458         -1.06531770        0.000992
       459         -1.06531771        0.000992
       460         -1.06531771        0.000992
       461         -1.06531773        0.000992
       462         -1.06531773        0.000992
       463         -1.06531778        0.000992
       464         -1.06531779        0.000992
       465         -1.06531781        0.000992
       466         -1.06531782        0.000992
       467         -1.06531783        0.000992
       468         -1.06531784        0.000992
       469         -1.06531784        0.000992
       470         -1.06531788        0.000992
       471         -1.06531788        0.000992
       472         -1.06531789        0.000992
       473         -1.06531792        0.000992
       474         -1.06531793        0.000992
       475         -1.06531795        0.000992
       476         -1.06531795        0.000992
       477         -1.06531796        0.000992
       478         -1.06531797        0.000992
       479         -1.06531798        0.000992
       480         -1.06531800        0.000992
       481         -1.06531801        0.000992
       482         -1.06531804        0.000992
       483         -1.06531805        0.000992
       484         -1.06531811        0.000992
       485         -1.06531811        0.000992
       486         -1.06531815        0.000992
       487         -1.06531817        0.000992
       488         -1.06531818        0.000992
       489         -1.06531819        0.000992
       490         -1.06531820        0.000992
       491         -1.06531822        0.000992
       492         -1.06531823        0.000992
       493         -1.06531826        0.000992
       494         -1.06531827        0.000992
       495         -1.06531828        0.000992
       496         -1.06531829        0.000992
       497         -1.06531829        0.000992
       498         -1.06531834        0.000992
       499         -1.06531835        0.000992
       500         -1.06531838        0.000992
       501         -1.06531838        0.000992
       502         -1.06531839        0.000992
       503         -1.06531839        0.000992
       504         -1.06531839        0.000992
       505         -1.06531841        0.000992
       506         -1.06531841        0.000992
       507         -1.06531843        0.000992
       508         -1.06531849        0.000992
       509         -1.06531849        0.000992
       510         -1.06531855        0.000992
       511         -1.06531856        0.000992
       512         -1.06531856        0.000992
       513         -1.06531859        0.000992
       514         -1.06531859        0.000992
       515         -1.06531860        0.000992
       516         -1.06531864        0.000992
       517         -1.06531864        0.000992
       518         -1.06531865        0.000992
       519         -1.06531866        0.000992
       520         -1.06531866        0.000992
       521         -1.06531868        0.000992
       522         -1.06531870        0.000992
       523         -1.06531874        0.000992
       524         -1.06531876        0.000992
       525         -1.06531877        0.000787
       526         -1.06531878        0.000787
       527         -1.06531878        0.000787
       528         -1.06531879        0.000787
       529         -1.06531880        0.000787
       530         -1.06531881        0.000787
       531         -1.06531881        0.000787
       532         -1.06531881        0.000787
       533         -1.06531884        0.000787
       534         -1.06531888        0.000787
       535         -1.06531888        0.000787
       536         -1.06531890        0.000787
       537         -1.06531890        0.000787
       538         -1.06531891        0.000787
       539         -1.06531894        0.000787
       540         -1.06531894        0.000787
       541         -1.06531895        0.000787
       542         -1.06531898        0.000787
       543         -1.06531899        0.000787
       544         -1.06531900        0.000787
       545         -1.06531900        0.000787
       546         -1.06531901        0.000787
       547         -1.06531902        0.000787
       548         -1.06531903        0.000787
       549         -1.06531907        0.000787
       550         -1.06531907        0.000787
       551         -1.06531907        0.000787
       552         -1.06531909        0.000787
       553         -1.06531910        0.000625
       554         -1.06531911        0.000625
       555         -1.06531911        0.000625
       556         -1.06531912        0.000625
       557         -1.06531913        0.000625
       558         -1.06531913        0.000625
       559         -1.06531915        0.000625
       560         -1.06531915        0.000625
       561         -1.06531916        0.000625
       562         -1.06531916        0.000625
       563         -1.06531916        0.000496
       564         -1.06531917        0.000496
       565         -1.06531918        0.000496
       566         -1.06531919        0.000496
       567         -1.06531920        0.000496
       568         -1.06531921        0.000496
       569         -1.06531923        0.000496
       570         -1.06531923        0.000496
       571         -1.06531923        0.000496
       572         -1.06531924        0.000496
       573         -1.06531925        0.000496
       574         -1.06531926        0.000394
       575         -1.06531926        0.000394
       576         -1.06531926        0.000394
       577         -1.06531926        0.000394
       578         -1.06531927        0.000394
       579         -1.06531928        0.000394
       580         -1.06531929        0.000394
       581         -1.06531929        0.000394
       582         -1.06531929        0.000394
       583         -1.06531930        0.000394
       584         -1.06531930        0.000394
       585         -1.06531930        0.000394
       586         -1.06531931        0.000394
       587         -1.06531931        0.000394
       588         -1.06531931        0.000394
       589         -1.06531932        0.000394
       590         -1.06531932        0.000394
       591         -1.06531933        0.000394
       592         -1.06531934        0.000394
       593         -1.06531934        0.000394
       594         -1.06531935        0.000394
       595         -1.06531935        0.000394
       596         -1.06531936        0.000394
       597         -1.06531937        0.000394
       598         -1.06531937        0.000394
       599         -1.06531938        0.000394
       600         -1.06531939        0.000394
       601         -1.06531939        0.000394
       602         -1.06531939        0.000394
       603         -1.06531939        0.000394
       604         -1.06531940        0.000394
       605         -1.06531940        0.000394
       606         -1.06531940        0.000394
       607         -1.06531941        0.000394
       608         -1.06531942        0.000394
       609         -1.06531942        0.000394
       610         -1.06531943        0.000394
       611         -1.06531943        0.000394
       612         -1.06531943        0.000394
       613         -1.06531943        0.000394
       614         -1.06531944        0.000394
       615         -1.06531944        0.000394
       616         -1.06531945        0.000394
       617         -1.06531945        0.000394
       618         -1.06531945        0.000394
       619         -1.06531945        0.000394
       620         -1.06531945        0.000394
       621         -1.06531946        0.000394
       622         -1.06531946        0.000394
       623         -1.06531946        0.000394
       624         -1.06531947        0.000394
       625         -1.06531947        0.000394
       626         -1.06531948        0.000394
       627         -1.06531948        0.000394
       628         -1.06531948        0.000394
       629         -1.06531948        0.000394
       630         -1.06531948        0.000394
       631         -1.06531949        0.000394
       632         -1.06531949        0.000394
       633         -1.06531949        0.000394
       634         -1.06531950        0.000394
       635         -1.06531950        0.000394
       636         -1.06531950        0.000394
       637         -1.06531950        0.000394
       638         -1.06531951        0.000394
       639         -1.06531952        0.000394
       640         -1.06531953        0.000394
       641         -1.06531953        0.000394
       642         -1.06531953        0.000394
       643         -1.06531953        0.000394
       644         -1.06531954        0.000394
       645         -1.06531954        0.000394
       646         -1.06531955        0.000394
       647         -1.06531955        0.000394
       648         -1.06531955        0.000394
       649         -1.06531956        0.000394
       650         -1.06531956        0.000394
       651         -1.06531957        0.000394
       652         -1.06531957        0.000394
       653         -1.06531958        0.000394
       654         -1.06531958        0.000394
       655         -1.06531958        0.000394
       656         -1.06531958        0.000394
       657         -1.06531959        0.000394
       658         -1.06531959        0.000394
       659         -1.06531960        0.000394
       660         -1.06531960        0.000394
       661         -1.06531960        0.000394
       662         -1.06531961        0.000394
       663         -1.06531961        0.000394
       664         -1.06531961        0.000394
       665         -1.06531962        0.000394
       666         -1.06531962        0.000394
       667         -1.06531963        0.000394
       668         -1.06531963        0.000394
       669         -1.06531963        0.000394
       670         -1.06531964        0.000394
       671         -1.06531964        0.000394
       672         -1.06531965        0.000394
       673         -1.06531966        0.000394
       674         -1.06531966        0.000394
       675         -1.06531966        0.000394
       676         -1.06531968        0.000394
       677         -1.06531968        0.000394
       678         -1.06531968        0.000394
       679         -1.06531969        0.000394
       680         -1.06531969        0.000394
       681         -1.06531970        0.000394
       682         -1.06531970        0.000394
       683         -1.06531971        0.000394
       684         -1.06531971        0.000394
       685         -1.06531971        0.000394
       686         -1.06531972        0.000394
       687         -1.06531972        0.000394
       688         -1.06531973        0.000394
       689         -1.06531973        0.000313
       690         -1.06531973        0.000313
       691         -1.06531974        0.000313
       692         -1.06531974        0.000313
       693         -1.06531974        0.000313
       694         -1.06531974        0.000313
       695         -1.06531975        0.000313
       696         -1.06531975        0.000313
       697         -1.06531975        0.000313
       698         -1.06531975        0.000313
       699         -1.06531975        0.000313
       700         -1.06531975        0.000313
       701         -1.06531976        0.000313
       702         -1.06531976        0.000313
       703         -1.06531976        0.000313
       704         -1.06531976        0.000313
       705         -1.06531977        0.000313
       706         -1.06531977        0.000313
       707         -1.06531977        0.000313
       708         -1.06531977        0.000313
       709         -1.06531978        0.000313
       710         -1.06531978        0.000313
       711         -1.06531978        0.000313
       712         -1.06531978        0.000313
       713         -1.06531979        0.000313
       714         -1.06531979        0.000313
       715         -1.06531980        0.000313
       716         -1.06531980        0.000313
       717         -1.06531980        0.000313
       718         -1.06531980        0.000313
       719         -1.06531981        0.000313
       720         -1.06531981        0.000313
       721         -1.06531981        0.000313
       722         -1.06531982        0.000313
       723         -1.06531982        0.000313
       724         -1.06531982        0.000313
       725         -1.06531982        0.000313
       726         -1.06531982        0.000313
       727         -1.06531983        0.000313
       728         -1.06531983        0.000313
       729         -1.06531983        0.000313
       730         -1.06531983        0.000313
       731         -1.06531984        0.000313
       732         -1.06531984        0.000313
       733         -1.06531984        0.000313
       734         -1.06531984        0.000313
       735         -1.06531985        0.000313
       736         -1.06531985        0.000313
       737         -1.06531986        0.000313
       738         -1.06531986        0.000313
       739         -1.06531987        0.000313
       740         -1.06531987        0.000313
       741         -1.06531987        0.000313
       742         -1.06531987        0.000313
       743         -1.06531988        0.000313
       744         -1.06531988        0.000313
       745         -1.06531988        0.000313
       746         -1.06531989        0.000313
       747         -1.06531989        0.000313
       748         -1.06531989        0.000313
       749         -1.06531989        0.000313
       750         -1.06531989        0.000313
       751         -1.06531990        0.000313
       752         -1.06531990        0.000313
       753         -1.06531991        0.000313
       754         -1.06531991        0.000313
       755         -1.06531991        0.000313
       756         -1.06531991        0.000313
       757         -1.06531991        0.000313
       758         -1.06531992        0.000313
       759         -1.06531992        0.000313
       760         -1.06531992        0.000313
       761         -1.06531992        0.000313
       762         -1.06531992        0.000313
       763         -1.06531992        0.000313
       764         -1.06531992        0.000313
       765         -1.06531992        0.000313
       766         -1.06531992        0.000313
       767         -1.06531992        0.000313
       768         -1.06531993        0.000313
       769         -1.06531993        0.000313
       770         -1.06531993        0.000313
       771         -1.06531993        0.000313
       772         -1.06531993        0.000313
       773         -1.06531993        0.000313
       774         -1.06531994        0.000313
       775         -1.06531994        0.000313
       776         -1.06531994        0.000313
       777         -1.06531994        0.000313
       778         -1.06531994        0.000313
       779         -1.06531994        0.000313
       780         -1.06531995        0.000313
       781         -1.06531995        0.000313
       782         -1.06531996        0.000313
       783         -1.06531996        0.000313
       784         -1.06531996        0.000313
       785         -1.06531996        0.000313
       786         -1.06531997        0.000313
       787         -1.06531997        0.000313
       788         -1.06531997        0.000313
       789         -1.06531997        0.000313
       790         -1.06531998        0.000313
       791         -1.06531998        0.000313
       792         -1.06531998        0.000313
       793         -1.06531999        0.000313
       794         -1.06531999        0.000313
       795         -1.06531999        0.000313
       796         -1.06531999        0.000313
       797         -1.06532000        0.000313
       798         -1.06532000        0.000313
       799         -1.06532001        0.000313
       800         -1.06532001        0.000313
       801         -1.06532001        0.000313
       802         -1.06532002        0.000313
       803         -1.06532002        0.000313
       804         -1.06532002        0.000313
       805         -1.06532002        0.000313
       806         -1.06532002        0.000313
       807         -1.06532002        0.000313
       808         -1.06532003        0.000313
       809         -1.06532003        0.000313
       810         -1.06532003        0.000313
       811         -1.06532003        0.000313
       812         -1.06532003        0.000313
       813         -1.06532004        0.000313
       814         -1.06532004        0.000313
       815         -1.06532004        0.000313
       816         -1.06532004        0.000313
       817         -1.06532004        0.000313
       818         -1.06532005        0.000313
       819         -1.06532005        0.000313
       820         -1.06532005        0.000313
       821         -1.06532005        0.000313
       822         -1.06532005        0.000313
       823         -1.06532006        0.000313
       824         -1.06532006        0.000313
       825         -1.06532006        0.000313
       826         -1.06532006        0.000313
       827         -1.06532006        0.000313
       828         -1.06532007        0.000313
       829         -1.06532007        0.000313
       830         -1.06532007        0.000313
       831         -1.06532007        0.000313
       832         -1.06532008        0.000313
       833         -1.06532008        0.000313
       834         -1.06532008        0.000313
       835         -1.06532008        0.000313
       836         -1.06532008        0.000313
       837         -1.06532008        0.000313
       838         -1.06532009        0.000313
       839         -1.06532009        0.000313
       840         -1.06532009        0.000313
       841         -1.06532009        0.000313
       842         -1.06532010        0.000313
       843         -1.06532010        0.000313
       844         -1.06532010        0.000248
       845         -1.06532010        0.000248
       846         -1.06532010        0.000248
       847         -1.06532010        0.000248
       848         -1.06532011        0.000248
       849         -1.06532011        0.000248
       850         -1.06532011        0.000248
       851         -1.06532011        0.000248
       852         -1.06532011        0.000248
       853         -1.06532011        0.000248
       854         -1.06532011        0.000248
       855         -1.06532011        0.000248
       856         -1.06532012        0.000248
       857         -1.06532012        0.000248
       858         -1.06532012        0.000248
       859         -1.06532012        0.000248
       860         -1.06532013        0.000248
       861         -1.06532013        0.000248
       862         -1.06532013        0.000248
       863         -1.06532013        0.000248
       864         -1.06532013        0.000248
       865         -1.06532013        0.000248
       866         -1.06532013        0.000248
       867         -1.06532013        0.000248
       868         -1.06532014        0.000248
       869         -1.06532014        0.000248
       870         -1.06532014        0.000248
       871         -1.06532014        0.000248
       872         -1.06532014        0.000248
       873         -1.06532015        0.000248
       874         -1.06532015        0.000248
       875         -1.06532015        0.000248
       876         -1.06532015        0.000248
       877         -1.06532015        0.000248
       878         -1.06532015        0.000248
       879         -1.06532015        0.000248
       880         -1.06532015        0.000248
       881         -1.06532016        0.000248
       882         -1.06532016        0.000248
       883         -1.06532016        0.000248
       884         -1.06532016        0.000248
       885         -1.06532016        0.000248
       886         -1.06532016        0.000248
       887         -1.06532016        0.000248
       888         -1.06532016        0.000248
       889         -1.06532017        0.000248
       890         -1.06532017        0.000248
       891         -1.06532017        0.000248
       892         -1.06532017        0.000248
       893         -1.06532017        0.000248
       894         -1.06532017        0.000248
       895         -1.06532017        0.000248
       896         -1.06532018        0.000248
       897         -1.06532018        0.000248
       898         -1.06532018        0.000248
       899         -1.06532018        0.000248
       900         -1.06532018        0.000248
       901         -1.06532018        0.000248
       902         -1.06532018        0.000248
       903         -1.06532018        0.000248
       904         -1.06532019        0.000248
       905         -1.06532019        0.000248
       906         -1.06532019        0.000248
       907         -1.06532019        0.000248
       908         -1.06532019        0.000197
       909         -1.06532019        0.000197
       910         -1.06532019        0.000197
       911         -1.06532019        0.000197
       912         -1.06532019        0.000197
       913         -1.06532020        0.000197
       914         -1.06532020        0.000197
       915         -1.06532020        0.000197
       916         -1.06532020        0.000197
       917         -1.06532020        0.000197
       918         -1.06532020        0.000197
       919         -1.06532020        0.000197
       920         -1.06532020        0.000197
       921         -1.06532020        0.000197
       922         -1.06532021        0.000197
       923         -1.06532021        0.000197
       924         -1.06532021        0.000197
       925         -1.06532021        0.000197
       926         -1.06532021        0.000197
       927         -1.06532021        0.000197
       928         -1.06532021        0.000197
       929         -1.06532021        0.000197
       930         -1.06532021        0.000197
       931         -1.06532022        0.000197
       932         -1.06532022        0.000197
       933         -1.06532022        0.000197
       934         -1.06532022        0.000197
       935         -1.06532022        0.000197
       936         -1.06532022        0.000197
       937         -1.06532022        0.000197
       938         -1.06532022        0.000197
       939         -1.06532022        0.000197
       940         -1.06532022        0.000197
       941         -1.06532023        0.000197
       942         -1.06532023        0.000197
       943         -1.06532023        0.000197
       944         -1.06532023        0.000197
       945         -1.06532023        0.000197
       946         -1.06532023        0.000197
       947         -1.06532023        0.000197
       948         -1.06532023        0.000197
       949         -1.06532023        0.000197
       950         -1.06532024        0.000197
       951         -1.06532024        0.000197
       952         -1.06532024        0.000197
       953         -1.06532024        0.000197
       954         -1.06532024        0.000197
       955         -1.06532024        0.000197
       956         -1.06532024        0.000197
       957         -1.06532024        0.000197
       958         -1.06532024        0.000197
       959         -1.06532024        0.000197
       960         -1.06532025        0.000197
       961         -1.06532025        0.000197
       962         -1.06532025        0.000197
       963         -1.06532025        0.000197
       964         -1.06532025        0.000197
       965         -1.06532025        0.000197
       966         -1.06532025        0.000197
       967         -1.06532025        0.000197
       968         -1.06532026        0.000197
       969         -1.06532026        0.000197
       970         -1.06532026        0.000197
       971         -1.06532026        0.000197
       972         -1.06532026        0.000197
       973         -1.06532026        0.000197
       974         -1.06532026        0.000197
       975         -1.06532026        0.000197
       976         -1.06532026        0.000197
       977         -1.06532026        0.000197
       978         -1.06532026        0.000197
       979         -1.06532026        0.000197
       980         -1.06532027        0.000197
       981         -1.06532027        0.000197
       982         -1.06532027        0.000197
       983         -1.06532027        0.000197
       984         -1.06532027        0.000197
       985         -1.06532027        0.000197
       986         -1.06532027        0.000197
       987         -1.06532027        0.000197
       988         -1.06532027        0.000197
       989         -1.06532027        0.000197
       990         -1.06532027        0.000197
       991         -1.06532027        0.000197
       992         -1.06532028        0.000197
       993         -1.06532028        0.000197
       994         -1.06532028        0.000197
       995         -1.06532028        0.000197
       996         -1.06532028        0.000197
       997         -1.06532028        0.000197
       998         -1.06532028        0.000197
       999         -1.06532028        0.000197
      1000         -1.06532028        0.000197
      1001         -1.06532028        0.000197
      1002         -1.06532028        0.000197
      1003         -1.06532028        0.000197
      1004         -1.06532028        0.000197
      1005         -1.06532029        0.000197
      1006         -1.06532029        0.000197
      1007         -1.06532029        0.000197
      1008         -1.06532029        0.000197
      1009         -1.06532029        0.000197
      1010         -1.06532029        0.000197
      1011         -1.06532029        0.000197
      1012         -1.06532029        0.000197
      1013         -1.06532029        0.000197
      1014         -1.06532029        0.000197
      1015         -1.06532029        0.000197
      1016         -1.06532030        0.000197
      1017         -1.06532030        0.000197
      1018         -1.06532030        0.000197
      1019         -1.06532030        0.000197
      1020         -1.06532030        0.000197
      1021         -1.06532030        0.000197
      1022         -1.06532030        0.000197
      1023         -1.06532030        0.000197
      1024         -1.06532030        0.000197
      1025         -1.06532030        0.000197
      1026         -1.06532030        0.000197
      1027         -1.06532030        0.000197
      1028         -1.06532030        0.000197
      1029         -1.06532030        0.000197
      1030         -1.06532031        0.000197
      1031         -1.06532031        0.000197
      1032         -1.06532031        0.000197
      1033         -1.06532031        0.000197
      1034         -1.06532031        0.000197
      1035         -1.06532031        0.000197
      1036         -1.06532031        0.000197
      1037         -1.06532031        0.000197
      1038         -1.06532031        0.000197
      1039         -1.06532031        0.000156
      1040         -1.06532031        0.000156
      1041         -1.06532031        0.000156
      1042         -1.06532031        0.000156
      1043         -1.06532032        0.000156
      1044         -1.06532032        0.000156
      1045         -1.06532032        0.000156
      1046         -1.06532032        0.000156
      1047         -1.06532032        0.000156
      1048         -1.06532032        0.000156
      1049         -1.06532032        0.000156
      1050         -1.06532032        0.000156
      1051         -1.06532032        0.000156
      1052         -1.06532032        0.000156
      1053         -1.06532032        0.000156
      1054         -1.06532032        0.000156
      1055         -1.06532032        0.000156
      1056         -1.06532032        0.000156
      1057         -1.06532032        0.000156
      1058         -1.06532032        0.000156
      1059         -1.06532032        0.000156
      1060         -1.06532032        0.000156
      1061         -1.06532032        0.000156
      1062         -1.06532033        0.000156
      1063         -1.06532033        0.000156
      1064         -1.06532033        0.000156
      1065         -1.06532033        0.000156
      1066         -1.06532033        0.000156
      1067         -1.06532033        0.000156
      1068         -1.06532033        0.000156
      1069         -1.06532033        0.000156
      1070         -1.06532033        0.000156
      1071         -1.06532033        0.000156
      1072         -1.06532033        0.000156
      1073         -1.06532033        0.000156
      1074         -1.06532033        0.000156
      1075         -1.06532033        0.000156
      1076         -1.06532033        0.000156
      1077         -1.06532033        0.000156
      1078         -1.06532033        0.000156
      1079         -1.06532033        0.000156
      1080         -1.06532033        0.000156
      1081         -1.06532033        0.000156
      1082         -1.06532034        0.000156
      1083         -1.06532034        0.000156
      1084         -1.06532034        0.000156
      1085         -1.06532034        0.000156
      1086         -1.06532034        0.000156
      1087         -1.06532034        0.000156
      1088         -1.06532034        0.000156
      1089         -1.06532034        0.000156
      1090         -1.06532034        0.000156
      1091         -1.06532034        0.000156
      1092         -1.06532034        0.000156
      1093         -1.06532034        0.000156
      1094         -1.06532034        0.000156
      1095         -1.06532034        0.000156
      1096         -1.06532034        0.000156
      1097         -1.06532034        0.000156
      1098         -1.06532034        0.000156
      1099         -1.06532034        0.000156
      1100         -1.06532034        0.000156
      1101         -1.06532034        0.000156
      1102         -1.06532034        0.000156
      1103         -1.06532034        0.000156
      1104         -1.06532034        0.000156
      1105         -1.06532034        0.000156
      1106         -1.06532035        0.000156
      1107         -1.06532035        0.000156
      1108         -1.06532035        0.000156
      1109         -1.06532035        0.000156
      1110         -1.06532035        0.000156
      1111         -1.06532035        0.000156
      1112         -1.06532035        0.000156
      1113         -1.06532035        0.000156
      1114         -1.06532035        0.000156
      1115         -1.06532035        0.000156
      1116         -1.06532035        0.000156
      1117         -1.06532035        0.000156
      1118         -1.06532035        0.000156
      1119         -1.06532035        0.000156
      1120         -1.06532035        0.000156
      1121         -1.06532035        0.000156
      1122         -1.06532035        0.000156
      1123         -1.06532035        0.000156
      1124         -1.06532035        0.000156
      1125         -1.06532035        0.000156
      1126         -1.06532035        0.000156
      1127         -1.06532035        0.000124
      1128         -1.06532035        0.000124
      1129         -1.06532035        0.000124
      1130         -1.06532035        0.000124
      1131         -1.06532036        0.000124
      1132         -1.06532036        0.000124
      1133         -1.06532036        0.000124
      1134         -1.06532036        0.000124
      1135         -1.06532036        0.000124
      1136         -1.06532036        0.000124
      1137         -1.06532036        0.000124
      1138         -1.06532036        0.000124
      1139         -1.06532036        0.000124
      1140         -1.06532036        0.000124
      1141         -1.06532036        0.000124
      1142         -1.06532036        0.000124
      1143         -1.06532036        0.000124
      1144         -1.06532036        0.000124
      1145         -1.06532036        0.000124
      1146         -1.06532036        0.000124
      1147         -1.06532036        0.000124
      1148         -1.06532036        0.000124
      1149         -1.06532036        0.000124
      1150         -1.06532036        0.000124
      1151         -1.06532036        0.000124
      1152         -1.06532036        0.000124
      1153         -1.06532036        0.000124
      1154         -1.06532036        0.000124
      1155         -1.06532036        0.000124
      1156         -1.06532036        0.000124
      1157         -1.06532036        0.000124
      1158         -1.06532036        0.000124
      1159         -1.06532036        0.000124
      1160         -1.06532036        0.000124
      1161         -1.06532037        0.000124
      1162         -1.06532037        0.000124
      1163         -1.06532037        0.000124
      1164         -1.06532037        0.000124
      1165         -1.06532037        0.000124
      1166         -1.06532037        0.000124
      1167         -1.06532037        0.000124
      1168         -1.06532037        0.000124
      1169         -1.06532037        0.000124
      1170         -1.06532037        0.000124
      1171         -1.06532037        0.000124
      1172         -1.06532037        0.000124
      1173         -1.06532037        0.000124
      1174         -1.06532037        0.000124
      1175         -1.06532037        0.000124
      1176         -1.06532037        0.000124
      1177         -1.06532037        0.000098
      1178         -1.06532037        0.000098
      1179         -1.06532037        0.000098
      1180         -1.06532037        0.000098
      1181         -1.06532037        0.000098
      1182         -1.06532037        0.000098
      1183         -1.06532037        0.000098
      1184         -1.06532037        0.000098
      1185         -1.06532037        0.000098
      1186         -1.06532037        0.000098
      1187         -1.06532037        0.000098
      1188         -1.06532037        0.000098
      1189         -1.06532037        0.000098
      1190         -1.06532037        0.000098
      1191         -1.06532037        0.000098
      1192         -1.06532037        0.000098
      1193         -1.06532037        0.000098
      1194         -1.06532037        0.000098
      1195         -1.06532037        0.000098
      1196         -1.06532037        0.000098
      1197         -1.06532037        0.000098
      1198         -1.06532037        0.000098
      1199         -1.06532037        0.000098
      1200         -1.06532037        0.000098
      1201         -1.06532037        0.000098
      1202         -1.06532037        0.000098
      1203         -1.06532037        0.000098
      1204         -1.06532037        0.000098
      1205         -1.06532037        0.000098
      1206         -1.06532037        0.000098
      1207         -1.06532037        0.000098
      1208         -1.06532037        0.000098
      1209         -1.06532038        0.000098
      1210         -1.06532038        0.000098
      1211         -1.06532038        0.000098
      1212         -1.06532038        0.000098
      1213         -1.06532038        0.000098
      1214         -1.06532038        0.000098
      1215         -1.06532038        0.000098
      1216         -1.06532038        0.000098
      1217         -1.06532038        0.000098
      1218         -1.06532038        0.000098
      1219         -1.06532038        0.000098
      1220         -1.06532038        0.000098
      1221         -1.06532038        0.000098
      1222         -1.06532038        0.000098
      1223         -1.06532038        0.000098
      1224         -1.06532038        0.000098
      1225         -1.06532038        0.000098
      1226         -1.06532038        0.000098
      1227         -1.06532038        0.000098
      1228         -1.06532038        0.000098
      1229         -1.06532038        0.000098
      1230         -1.06532038        0.000098
      1231         -1.06532038        0.000098
      1232         -1.06532038        0.000098
      1233         -1.06532038        0.000098
      1234         -1.06532038        0.000098
      1235         -1.06532038        0.000098
      1236         -1.06532038        0.000098
      1237         -1.06532038        0.000098
      1238         -1.06532038        0.000098
      1239         -1.06532038        0.000098
      1240         -1.06532038        0.000098
      1241         -1.06532038        0.000098
      1242         -1.06532038        0.000098
      1243         -1.06532038        0.000098
      1244         -1.06532038        0.000098
      1245         -1.06532038        0.000098
      1246         -1.06532038        0.000098
      1247         -1.06532038        0.000098
      1248         -1.06532038        0.000098
      1249         -1.06532038        0.000098
      1250         -1.06532038        0.000098
      1251         -1.06532038        0.000098
      1252         -1.06532038        0.000098
      1253         -1.06532038        0.000098
      1254         -1.06532038        0.000098
      1255         -1.06532038        0.000098
      1256         -1.06532038        0.000098
      1257         -1.06532038        0.000098
      1258         -1.06532038        0.000098
      1259         -1.06532038        0.000078
      1260         -1.06532038        0.000078
      1261         -1.06532038        0.000078
      1262         -1.06532038        0.000078
      1263         -1.06532038        0.000078
      1264         -1.06532038        0.000078
      1265         -1.06532038        0.000078
      1266         -1.06532038        0.000078
      1267         -1.06532038        0.000078
      1268         -1.06532038        0.000078
      1269         -1.06532038        0.000078
      1270         -1.06532038        0.000062
      1271         -1.06532038        0.000062
      1272         -1.06532038        0.000062
      1273         -1.06532038        0.000062
      1274         -1.06532038        0.000049
      1275         -1.06532038        0.000049
      1276         -1.06532038        0.000049
      1277         -1.06532038        0.000049
      1278         -1.06532038        0.000049
      1279         -1.06532038        0.000049
      1280         -1.06532038        0.000049
      1281         -1.06532038        0.000049
      1282         -1.06532038        0.000049
      1283         -1.06532038        0.000049
      1284         -1.06532038        0.000049
      1285         -1.06532038        0.000049
      1286         -1.06532038        0.000049
      1287         -1.06532038        0.000049
      1288         -1.06532038        0.000049
      1289         -1.06532038        0.000049
      1290         -1.06532038        0.000049
      1291         -1.06532039        0.000049
      1292         -1.06532039        0.000049
      1293         -1.06532039        0.000049
      1294         -1.06532039        0.000049
      1295         -1.06532039        0.000049
      1296         -1.06532039        0.000049
      1297         -1.06532039        0.000049
      1298         -1.06532039        0.000049
      1299         -1.06532039        0.000049
      1300         -1.06532039        0.000049
      1301         -1.06532039        0.000049
      1302         -1.06532039        0.000049
      1303         -1.06532039        0.000049
      1304         -1.06532039        0.000049
      1305         -1.06532039        0.000049
      1306         -1.06532039        0.000049
      1307         -1.06532039        0.000049
      1308         -1.06532039        0.000049
      1309         -1.06532039        0.000049
      1310         -1.06532039        0.000049
      1311         -1.06532039        0.000049
      1312         -1.06532039        0.000049
      1313         -1.06532039        0.000049
      1314         -1.06532039        0.000049
      1315         -1.06532039        0.000049
      1316         -1.06532039        0.000049
      1317         -1.06532039        0.000049
      1318         -1.06532039        0.000049
      1319         -1.06532039        0.000049
      1320         -1.06532039        0.000049
      1321         -1.06532039        0.000049
      1322         -1.06532039        0.000049
      1323         -1.06532039        0.000049
      1324         -1.06532039        0.000049
      1325         -1.06532039        0.000049
      1326         -1.06532039        0.000049
      1327         -1.06532039        0.000049
      1328         -1.06532039        0.000049
      1329         -1.06532039        0.000049
      1330         -1.06532039        0.000049
      1331         -1.06532039        0.000049
      1332         -1.06532039        0.000049
      1333         -1.06532039        0.000049
      1334         -1.06532039        0.000049
      1335         -1.06532039        0.000049
      1336         -1.06532039        0.000049
      1337         -1.06532039        0.000049
      1338         -1.06532039        0.000049
      1339         -1.06532039        0.000049
      1340         -1.06532039        0.000049
      1341         -1.06532039        0.000049
      1342         -1.06532039        0.000049
      1343         -1.06532039        0.000049
      1344         -1.06532039        0.000049
      1345         -1.06532039        0.000049
      1346         -1.06532039        0.000049
      1347         -1.06532039        0.000049
      1348         -1.06532039        0.000049
      1349         -1.06532039        0.000049
      1350         -1.06532039        0.000049
      1351         -1.06532039        0.000049
      1352         -1.06532039        0.000049
      1353         -1.06532039        0.000049
      1354         -1.06532039        0.000049
      1355         -1.06532039        0.000049
      1356         -1.06532039        0.000049
      1357         -1.06532039        0.000049
      1358         -1.06532039        0.000049
      1359         -1.06532039        0.000049
      1360         -1.06532039        0.000049
      1361         -1.06532039        0.000049
      1362         -1.06532039        0.000049
      1363         -1.06532039        0.000049
      1364         -1.06532039        0.000049
      1365         -1.06532039        0.000039
      1366         -1.06532039        0.000039
      1367         -1.06532039        0.000039
      1368         -1.06532039        0.000039
      1369         -1.06532039        0.000039
      1370         -1.06532039        0.000039
      1371         -1.06532039        0.000039
      1372         -1.06532039        0.000039
      1373         -1.06532039        0.000039
      1374         -1.06532039        0.000039
      1375         -1.06532039        0.000039
      1376         -1.06532039        0.000039
      1377         -1.06532039        0.000039
      1378         -1.06532039        0.000039
      1379         -1.06532039        0.000039
      1380         -1.06532039        0.000039
      1381         -1.06532039        0.000039
      1382         -1.06532039        0.000039
      1383         -1.06532039        0.000039
      1384         -1.06532039        0.000039
      1385         -1.06532039        0.000039
      1386         -1.06532039        0.000039
      1387         -1.06532039        0.000039
      1388         -1.06532039        0.000039
      1389         -1.06532039        0.000039
      1390         -1.06532039        0.000039
      1391         -1.06532039        0.000039
      1392         -1.06532039        0.000039
      1393         -1.06532039        0.000039
      1394         -1.06532039        0.000039
      1395         -1.06532039        0.000039
      1396         -1.06532039        0.000039
      1397         -1.06532039        0.000039
      1398         -1.06532039        0.000039
      1399         -1.06532039        0.000039
      1400         -1.06532039        0.000039
      1401         -1.06532039        0.000039
      1402         -1.06532039        0.000039
      1403         -1.06532039        0.000039
      1404         -1.06532039        0.000039
      1405         -1.06532039        0.000039
      1406         -1.06532039        0.000039
      1407         -1.06532039        0.000039
      1408         -1.06532039        0.000039
      1409         -1.06532039        0.000039
      1410         -1.06532039        0.000039
      1411         -1.06532039        0.000039
      1412         -1.06532039        0.000039
      1413         -1.06532039        0.000039
      1414         -1.06532039        0.000039
      1415         -1.06532039        0.000039
      1416         -1.06532039        0.000039
      1417         -1.06532039        0.000039
      1418         -1.06532039        0.000039
      1419         -1.06532039        0.000039
      1420         -1.06532039        0.000039
      1421         -1.06532039        0.000039
      1422         -1.06532039        0.000039
      1423         -1.06532039        0.000039
      1424         -1.06532039        0.000039
      1425         -1.06532039        0.000039
      1426         -1.06532039        0.000039
      1427         -1.06532039        0.000039
      1428         -1.06532039        0.000039
      1429         -1.06532039        0.000039
      1430         -1.06532039        0.000039
      1431         -1.06532039        0.000039
      1432         -1.06532039        0.000039
      1433         -1.06532039        0.000039
      1434         -1.06532039        0.000039
      1435         -1.06532039        0.000039
      1436         -1.06532039        0.000039
      1437         -1.06532039        0.000039
      1438         -1.06532039        0.000039
      1439         -1.06532039        0.000039
      1440         -1.06532039        0.000039
      1441         -1.06532039        0.000039
      1442         -1.06532039        0.000039
      1443         -1.06532039        0.000039
      1444         -1.06532039        0.000039
      1445         -1.06532039        0.000039
      1446         -1.06532039        0.000039
      1447         -1.06532039        0.000039
      1448         -1.06532039        0.000039
      1449         -1.06532039        0.000039
      1450         -1.06532039        0.000039
      1451         -1.06532039        0.000039
      1452         -1.06532039        0.000039
      1453         -1.06532039        0.000039
      1454         -1.06532039        0.000039
      1455         -1.06532039        0.000039
      1456         -1.06532039        0.000039
      1457         -1.06532039        0.000039
      1458         -1.06532039        0.000039
      1459         -1.06532039        0.000039
      1460         -1.06532039        0.000039
      1461         -1.06532039        0.000039
      1462         -1.06532039        0.000039
      1463         -1.06532039        0.000039
      1464         -1.06532039        0.000039
      1465         -1.06532039        0.000039
      1466         -1.06532039        0.000039
      1467         -1.06532039        0.000039
      1468         -1.06532039        0.000039
      1469         -1.06532039        0.000039
      1470         -1.06532039        0.000039
      1471         -1.06532039        0.000039
      1472         -1.06532039        0.000039
      1473         -1.06532039        0.000039
      1474         -1.06532039        0.000039
      1475         -1.06532039        0.000039
      1476         -1.06532039        0.000039
      1477         -1.06532039        0.000039
      1478         -1.06532039        0.000039
      1479         -1.06532039        0.000039
      1480         -1.06532039        0.000039
      1481         -1.06532039        0.000039
      1482         -1.06532039        0.000039
      1483         -1.06532039        0.000039
      1484         -1.06532039        0.000039
      1485         -1.06532039        0.000039
      1486         -1.06532039        0.000039
      1487         -1.06532039        0.000039
      1488         -1.06532039        0.000039
      1489         -1.06532039        0.000039
      1490         -1.06532039        0.000039
      1491         -1.06532039        0.000039
      1492         -1.06532040        0.000039
      1493         -1.06532040        0.000039
      1494         -1.06532040        0.000039
      1495         -1.06532040        0.000039
      1496         -1.06532040        0.000039
      1497         -1.06532040        0.000039
      1498         -1.06532040        0.000039
      1499         -1.06532040        0.000039
      1500         -1.06532040        0.000039
      1501         -1.06532040        0.000039
      1502         -1.06532040        0.000039
      1503         -1.06532040        0.000039
      1504         -1.06532040        0.000039
      1505         -1.06532040        0.000039
      1506         -1.06532040        0.000039
      1507         -1.06532040        0.000039
      1508         -1.06532040        0.000039
      1509         -1.06532040        0.000039
      1510         -1.06532040        0.000039
      1511         -1.06532040        0.000039
      1512         -1.06532040        0.000039
      1513         -1.06532040        0.000039
      1514         -1.06532040        0.000039
      1515         -1.06532040        0.000039
      1516         -1.06532040        0.000039
      1517         -1.06532040        0.000039
      1518         -1.06532040        0.000039
      1519         -1.06532040        0.000039
      1520         -1.06532040        0.000039
      1521         -1.06532040        0.000039
      1522         -1.06532040        0.000039
      1523         -1.06532040        0.000039
      1524         -1.06532040        0.000039
      1525         -1.06532040        0.000039
      1526         -1.06532040        0.000039
      1527         -1.06532040        0.000039
      1528         -1.06532040        0.000039
      1529         -1.06532040        0.000039
      1530         -1.06532040        0.000039
      1531         -1.06532040        0.000039
      1532         -1.06532040        0.000039
      1533         -1.06532040        0.000039
      1534         -1.06532040        0.000039
      1535         -1.06532040        0.000039
      1536         -1.06532040        0.000039
      1537         -1.06532040        0.000031
      1538         -1.06532040        0.000031
      1539         -1.06532040        0.000031
      1540         -1.06532040        0.000031
      1541         -1.06532040        0.000031
      1542         -1.06532040        0.000031
      1543         -1.06532040        0.000031
      1544         -1.06532040        0.000031
      1545         -1.06532040        0.000031
      1546         -1.06532040        0.000031
      1547         -1.06532040        0.000031
      1548         -1.06532040        0.000031
      1549         -1.06532040        0.000031
      1550         -1.06532040        0.000031
      1551         -1.06532040        0.000031
      1552         -1.06532040        0.000031
[...]
      2546         -1.06532040        0.000002
      2547         -1.06532040        0.000002
      2548         -1.06532040        0.000002
      2549         -1.06532040        0.000002
      2550         -1.06532040        0.000002
      2551         -1.06532040        0.000002
      2552         -1.06532040        0.000002
      2553         -1.06532040        0.000002
      2554         -1.06532040        0.000002
      2555         -1.06532040        0.000002
      2556         -1.06532040        0.000002
      2557         -1.06532040        0.000002
      2558         -1.06532040        0.000002
      2559         -1.06532040        0.000002
      2560         -1.06532040        0.000002
      2561         -1.06532040        0.000002
      2562         -1.06532040        0.000002
      2563         -1.06532040        0.000002
      2564         -1.06532040        0.000002
      2565         -1.06532040        0.000002
      2566         -1.06532040        0.000002
      2567         -1.06532040        0.000002
      2568         -1.06532040        0.000002
      2569         -1.06532040        0.000002
      2570         -1.06532040        0.000002
      2571         -1.06532040        0.000002
      2572         -1.06532040        0.000002
      2573         -1.06532040        0.000002
      2574         -1.06532040        0.000002
      2575         -1.06532040        0.000002
      2576         -1.06532040        0.000002
      2577         -1.06532040        0.000002
      2578         -1.06532040        0.000002
      2579         -1.06532040        0.000002
      2580         -1.06532040        0.000002
      2581         -1.06532040        0.000002
      2582         -1.06532040        0.000002
      2583         -1.06532040        0.000002
      2584         -1.06532040        0.000002
      2585         -1.06532040        0.000002
      2586         -1.06532040        0.000001
      2587         -1.06532040        0.000001
      2588         -1.06532040        0.000001
      2589         -1.06532040        0.000001
      2590         -1.06532040        0.000001
      2591         -1.06532040        0.000001
      2592         -1.06532040        0.000001
      2593         -1.06532040        0.000001
      2594         -1.06532040        0.000001
      2595         -1.06532040        0.000001
      2596         -1.06532040        0.000001
      2597         -1.06532040        0.000001
      2598         -1.06532040        0.000001
      2599         -1.06532040        0.000001
      2600         -1.06532040        0.000001
      2601         -1.06532040        0.000001
      2602         -1.06532040        0.000001
      2603         -1.06532040        0.000001
      2604         -1.06532040        0.000001
      2605         -1.06532040        0.000001
      2606         -1.06532040        0.000001
      2607         -1.06532040        0.000001
      2608         -1.06532040        0.000001
      2609         -1.06532040        0.000001
      2610         -1.06532040        0.000001
      2611         -1.06532040        0.000001
      2612         -1.06532040        0.000001
      2613         -1.06532040        0.000001
      2614         -1.06532040        0.000001
      2615         -1.06532040        0.000001
      2616         -1.06532040        0.000001
      2617         -1.06532040        0.000001
      2618         -1.06532040        0.000001
      2619         -1.06532040        0.000001
      2620         -1.06532040        0.000001
      2621         -1.06532040        0.000001
      2622         -1.06532040        0.000001
      2623         -1.06532040        0.000001
      2624         -1.06532040        0.000001
      2625         -1.06532040        0.000001
      2626         -1.06532040        0.000001
      2627         -1.06532040        0.000001
      2628         -1.06532040        0.000001
      2629         -1.06532040        0.000001
      2630         -1.06532040        0.000001
      2631         -1.06532040        0.000001
      2632         -1.06532040        0.000001
      2633         -1.06532040        0.000001
      2634         -1.06532040        0.000001
      2635         -1.06532040        0.000001
      2636         -1.06532040        0.000001
      2637         -1.06532040        0.000001
      2638         -1.06532040        0.000001
      2639         -1.06532040        0.000001
      2640         -1.06532040        0.000001
      2641         -1.06532040        0.000001
      2642         -1.06532040        0.000001
      2643         -1.06532040        0.000001
      2644         -1.06532040        0.000001
      2645         -1.06532040        0.000001
      2646         -1.06532040        0.000001
      2647         -1.06532040        0.000001
      2648         -1.06532040        0.000001
      2649         -1.06532040        0.000001
      2650         -1.06532040        0.000001
      2651         -1.06532040        0.000001
      2652         -1.06532040        0.000001
      2653         -1.06532040        0.000001
      2654         -1.06532040        0.000001
      2655         -1.06532040        0.000001
      2656         -1.06532040        0.000001
      2657         -1.06532040        0.000001
      2658         -1.06532040        0.000001
      2659         -1.06532040        0.000001
      2660         -1.06532040        0.000001
      2661         -1.06532040        0.000001
      2662         -1.06532040        0.000001
      2663         -1.06532040        0.000001
      2664         -1.06532040        0.000001
      2665         -1.06532040        0.000001
      2666         -1.06532040        0.000001
      2667         -1.06532040        0.000001
      2668         -1.06532040        0.000001
      2669         -1.06532040        0.000001
      2670         -1.06532040        0.000001
      2671         -1.06532040        0.000001
      2672         -1.06532040        0.000001
      2673         -1.06532040        0.000001
      2674         -1.06532040        0.000001
      2675         -1.06532040        0.000001
      2676         -1.06532040        0.000001
      2677         -1.06532040        0.000001
      2678         -1.06532040        0.000001
      2679         -1.06532040        0.000001
      2680         -1.06532040        0.000001
      2681         -1.06532040        0.000001
      2682         -1.06532040        0.000001
      2683         -1.06532040        0.000001
      2684         -1.06532040        0.000001
      2685         -1.06532040        0.000001
      2686         -1.06532040        0.000001
      2687         -1.06532040        0.000001
      2688         -1.06532040        0.000001
      2689         -1.06532040        0.000001
      2690         -1.06532040        0.000001
      2691         -1.06532040        0.000001
      2692         -1.06532040        0.000001
      2693         -1.06532040        0.000001
      2694         -1.06532040        0.000001
      2695         -1.06532040        0.000001
      2696         -1.06532040        0.000001
      2697         -1.06532040        0.000001
      2698         -1.06532040        0.000001
      2699         -1.06532040        0.000001
      2700         -1.06532040        0.000001
      2701         -1.06532040        0.000001
      2702         -1.06532040        0.000001
      2703         -1.06532040        0.000001
      2704         -1.06532040        0.000001
      2705         -1.06532040        0.000001
      2706         -1.06532040        0.000001
      2707         -1.06532040        0.000001
      2708         -1.06532040        0.000001
      2709         -1.06532040        0.000001
      2710         -1.06532040        0.000001
      2711         -1.06532040        0.000001
      2712         -1.06532040        0.000001
      2713         -1.06532040        0.000001
      2714         -1.06532040        0.000001
      2715         -1.06532040        0.000001
      2716         -1.06532040        0.000001
      2717         -1.06532040        0.000001
      2718         -1.06532040        0.000001
      2719         -1.06532040        0.000001
      2720         -1.06532040        0.000001
      2721         -1.06532040        0.000001
      2722         -1.06532040        0.000001
      2723         -1.06532040        0.000001
      2724         -1.06532040        0.000001
      2725         -1.06532040        0.000001
      2726         -1.06532040        0.000001
      2727         -1.06532040        0.000001

 Reached Convergence

 WFN1                     :
 --------------------------
 Total WFN1 energy  =          -1.0653204003
 1-Electron energy  =          -1.9298079012
 2-Electron energy  =           0.5128731572
 Correlation energy =          -0.0670248112
 DFT XC energy      =           0.0000000000
 Entropy energy     =           0.0000000000
 Nuclear energy     =           0.4186391548

 conventional Hartree-Fock:
 --------------------------
 Total SCF energy  =          -1.0312217087
 2-Electron energy =           0.5469718489

                WFN1 Final Natural orbital energies and occupations
                ---------------------------------------------------

              Alpha       Beta            Alpha       Beta  
            --------    --------        --------    --------
       1      0.0000      0.0000          0.9496      0.9496
       2      0.0000      0.0000          0.0415      0.0415
       3      0.0000      0.0000          0.0051      0.0051
       4      0.0000      0.0000          0.0038      0.0038

             WFN1 Final Correlation function energies and occupations
             --------------------------------------------------------

              Alpha       Beta            Alpha       Beta  
            --------    --------        --------    --------
       1      0.0000      0.0000          1.0000      1.0000
       2      0.0000      0.0000          0.0000      0.0000
       3      0.0000      0.0000          0.0000      0.0000
       4      0.0000      0.0000          0.0000      0.0000

                WFN1 Final alpha-alpha 2-matrix occupation numbers
                --------------------------------------------------


 global array: g_momo1[1:4,1:4],  handle: -990 

            1           2           3           4  
       ----------- ----------- ----------- -----------
   1       0.00000     0.00000     0.00000     0.00000
   2       0.00000     0.00000     0.00000     0.00000
   3       0.00000     0.00000     0.00000     0.00000
   4       0.00000     0.00000     0.00000     0.00000

                 WFN1 Final beta-beta 2-matrix occupation numbers
                 ------------------------------------------------


 global array: g_momo2[1:4,1:4],  handle: -989 

            1           2           3           4  
       ----------- ----------- ----------- -----------
   1       0.00000     0.00000     0.00000     0.00000
   2       0.00000     0.00000     0.00000     0.00000
   3       0.00000     0.00000     0.00000     0.00000
   4       0.00000     0.00000     0.00000     0.00000

                  WFN1 Final alpha Correlation Function Analysis
                  ----------------------------------------------


 global array: Ca[1:4,1:4],  handle: -977 

                     1                       2                       3                       4  
       ----------------------- ----------------------- ----------------------- -----------------------
   1       0.43037,   -0.87426    -0.08585,    0.18344     0.03244,    0.00059     0.05235,   -0.07501
   2      -0.01873,    0.20281    -0.07436,    0.97557     0.00279,   -0.03508     0.00281,    0.00253
   3      -0.00375,    0.07164     0.01022,   -0.03780     0.34279,   -0.64752     0.31452,   -0.59800
   4      -0.04676,    0.04031    -0.00893,    0.01005    -0.43824,    0.51852     0.46802,   -0.56217

                   WFN1 Final beta Correlation Function Analysis
                   ---------------------------------------------


 global array: Cb[1:4,1:4],  handle: -976 

                     1                       2                       3                       4  
       ----------------------- ----------------------- ----------------------- -----------------------
   1       0.43037,   -0.87426    -0.08585,    0.18344     0.03244,    0.00059     0.05235,   -0.07501
   2      -0.01873,    0.20281    -0.07436,    0.97557     0.00279,   -0.03508     0.00281,    0.00253
   3      -0.00375,    0.07164     0.01022,   -0.03780     0.34279,   -0.64752     0.31452,   -0.59800
   4      -0.04676,    0.04031    -0.00893,    0.01005    -0.43824,    0.51852     0.46802,   -0.56217

                     WFN1 Final Alpha Natural Orbital Analysis
                     -----------------------------------------

 Vector    1  Occ=9.495599D-01  E= 0.000000D+00
              MO Center=  0.0D+00,  0.0D+00, -4.6D-07, r^2= 1.1D+00
   Bfn.  Coefficient  Atom+Function         Bfn.  Coefficient  Atom+Function  
  ----- ------------  ---------------      ----- ------------  ---------------
     2      0.378527  1 H  s                  4      0.378526  2 H  s          
     1      0.259799  1 H  s                  3      0.259799  2 H  s          

 Vector    2  Occ=4.148266D-02  E= 0.000000D+00
              MO Center=  0.0D+00,  0.0D+00,  2.4D-07, r^2= 1.3D+00
   Bfn.  Coefficient  Atom+Function         Bfn.  Coefficient  Atom+Function  
  ----- ------------  ---------------      ----- ------------  ---------------
     2      0.607983  1 H  s                  4     -0.607978  2 H  s          
     1      0.446331  1 H  s                  3     -0.446338  2 H  s          

 Vector    3  Occ=5.145708D-03  E= 0.000000D+00
              MO Center=  0.0D+00,  0.0D+00,  1.7D-05, r^2= 1.6D+00
   Bfn.  Coefficient  Atom+Function         Bfn.  Coefficient  Atom+Function  
  ----- ------------  ---------------      ----- ------------  ---------------
     1      0.922650  1 H  s                  3      0.922664  2 H  s          
     2     -0.698358  1 H  s                  4     -0.698390  2 H  s          

 Vector    4  Occ=3.811722D-03  E= 0.000000D+00
              MO Center=  0.0D+00,  0.0D+00, -1.6D-05, r^2= 2.3D+00
   Bfn.  Coefficient  Atom+Function         Bfn.  Coefficient  Atom+Function  
  ----- ------------  ---------------      ----- ------------  ---------------
     2     -1.337058  1 H  s                  4      1.337044  2 H  s          
     1      0.839754  1 H  s                  3     -0.839736  2 H  s          


                     WFN1 Final Beta Natural Orbital Analysis
                     ----------------------------------------

 Vector    1  Occ=9.495599D-01  E= 0.000000D+00
              MO Center=  0.0D+00,  0.0D+00, -4.6D-07, r^2= 1.1D+00
   Bfn.  Coefficient  Atom+Function         Bfn.  Coefficient  Atom+Function  
  ----- ------------  ---------------      ----- ------------  ---------------
     2      0.378527  1 H  s                  4      0.378526  2 H  s          
     1      0.259799  1 H  s                  3      0.259799  2 H  s          

 Vector    2  Occ=4.148266D-02  E= 0.000000D+00
              MO Center=  0.0D+00,  0.0D+00,  2.4D-07, r^2= 1.3D+00
   Bfn.  Coefficient  Atom+Function         Bfn.  Coefficient  Atom+Function  
  ----- ------------  ---------------      ----- ------------  ---------------
     2      0.607983  1 H  s                  4     -0.607978  2 H  s          
     1      0.446331  1 H  s                  3     -0.446338  2 H  s          

 Vector    3  Occ=5.145708D-03  E= 0.000000D+00
              MO Center=  0.0D+00,  0.0D+00,  1.7D-05, r^2= 1.6D+00
   Bfn.  Coefficient  Atom+Function         Bfn.  Coefficient  Atom+Function  
  ----- ------------  ---------------      ----- ------------  ---------------
     1      0.922650  1 H  s                  3      0.922664  2 H  s          
     2     -0.698358  1 H  s                  4     -0.698390  2 H  s          

 Vector    4  Occ=3.811722D-03  E= 0.000000D+00
              MO Center=  0.0D+00,  0.0D+00, -1.6D-05, r^2= 2.3D+00
   Bfn.  Coefficient  Atom+Function         Bfn.  Coefficient  Atom+Function  
  ----- ------------  ---------------      ----- ------------  ---------------
     2     -1.337058  1 H  s                  4      1.337044  2 H  s          
     1      0.839754  1 H  s                  3     -0.839736  2 H  s          


 Task  times  cpu:       55.4s     wall:       73.7s
 Summary of allocated global arrays
-----------------------------------
  No active global arrays



                         GA Statistics for process    0
                         ------------------------------

       create   destroy   get      put      acc     scatter   gather  read&inc
calls:   44       44     4.07e+07 8.37e+04 1.11e+05    0        0       11     
number of processes/call 1.00e+00 1.00e+00 1.00e+00 0.00e+00 0.00e+00
bytes total:             5.23e+09 1.42e+07 1.78e+07 0.00e+00 0.00e+00 8.80e+01
bytes remote:            0.00e+00 0.00e+00 0.00e+00 0.00e+00 0.00e+00 0.00e+00
Max memory consumed for GA by this process: 10624 bytes
MA_summarize_allocated_blocks: starting scan ...
MA_summarize_allocated_blocks: scan completed: 0 heap blocks, 0 stack blocks
MA usage statistics:

	allocation statistics:
					      heap	     stack
					      ----	     -----
	current number of blocks	         0	         0
	maximum number of blocks	        19	        17
	current total bytes		         0	         0
	maximum total bytes		   3204344	  22508664
	maximum total K-bytes		      3205	     22509
	maximum total M-bytes		         4	        23


                                NWChem Input Module
                                -------------------





                                     CITATION
                                     --------
                Please cite the following reference when publishing
                           results obtained with NWChem:

                 M. Valiev, E.J. Bylaska, N. Govind, K. Kowalski,
              T.P. Straatsma, H.J.J. van Dam, D. Wang, J. Nieplocha,
                        E. Apra, T.L. Windus, W.A. de Jong
                 "NWChem: a comprehensive and scalable open-source
                  solution for large scale molecular simulations"
                      Comput. Phys. Commun. 181, 1477 (2010)
                           doi:10.1016/j.cpc.2010.04.018

                                      AUTHORS
                                      -------
          E. Apra, E. J. Bylaska, W. A. de Jong, N. Govind, K. Kowalski,
       T. P. Straatsma, M. Valiev, H. J. J. van Dam, D. Wang, T. L. Windus,
        J. Hammond, J. Autschbach, K. Bhaskaran-Nair, J. Brabec, K. Lopata,
    S. A. Fischer, S. Krishnamoorthy, M. Jacquelin, W. Ma, M. Klemm, O. Villa,
      Y. Chen, V. Anisimov, F. Aquino, S. Hirata, M. T. Hackler, V. Konjkov,
      T. Risthaus, M. Malagoli, A. Marenich, A. Otero-de-la-Roza, J. Mullin,
        P. Nichols, R. Peverati, J. Pittner, Y. Zhao, P.-D. Fan, A. Fonari,
       M. Williamson, R. J. Harrison, J. R. Rehr, M. Dupuis, D. Silverstein,
    D. M. A. Smith, J. Nieplocha, V. Tipparaju, M. Krishnan, B. E. Van Kuiken,
        A. Vazquez-Mayagoitia, L. Jensen, M. Swart, Q. Wu, T. Van Voorhis,
     A. A. Auer, M. Nooijen, L. D. Crosby, E. Brown, G. Cisneros, G. I. Fann,
   H. Fruchtl, J. Garza, K. Hirao, R. A. Kendall, J. A. Nichols, K. Tsemekhman,
    K. Wolinski, J. Anchell, D. E. Bernholdt, P. Borowski, T. Clark, D. Clerc,
   H. Dachsel, M. J. O. Deegan, K. Dyall, D. Elwood, E. Glendening, M. Gutowski,
   A. C. Hess, J. Jaffe, B. G. Johnson, J. Ju, R. Kobayashi, R. Kutteh, Z. Lin,
   R. Littlefield, X. Long, B. Meng, T. Nakajima, S. Niu, L. Pollack, M. Rosing,
   K. Glaesemann, G. Sandrone, M. Stave, H. Taylor, G. Thomas, J. H. van Lenthe,
                               A. T. Wong, Z. Zhang.

 Total times  cpu:       55.4s     wall:       73.7s
