 argument  1 = input-wf.nw



============================== echo of input deck ==============================
echo
start wfn1_dat
geometry units au noautoz
  H 0 0 -1.29434600000000000000
  H 0 0  1.29434600000000000000
  symmetry cs
end
basis
  H library 6-31g
end
set wfn1:input_vectors "atomic"
set wfn1:solver "monte-carlo"
set wfn1:print_error F
set wfn1:t_initial 0.1
#set wfn1:corr_expr "wfn1_mx"
set wfn1:corr_expr "wfn1c"
set wfn1:t_bath 0.0
set wfn1:maxit  20000
task wfn1 energy
================================================================================


                                         
                                         


              Northwest Computational Chemistry Package (NWChem) 6.8
              ------------------------------------------------------


                    Environmental Molecular Sciences Laboratory
                       Pacific Northwest National Laboratory
                                Richland, WA 99352

                              Copyright (c) 1994-2015
                       Pacific Northwest National Laboratory
                            Battelle Memorial Institute

             NWChem is an open-source computational chemistry package
                        distributed under the terms of the
                      Educational Community License (ECL) 2.0
             A copy of the license is included with this distribution
                              in the LICENSE.TXT file

                                  ACKNOWLEDGMENT
                                  --------------

            This software and its documentation were developed at the
            EMSL at Pacific Northwest National Laboratory, a multiprogram
            national laboratory, operated for the U.S. Department of Energy
            by Battelle under Contract Number DE-AC05-76RL01830. Support
            for this work was provided by the Department of Energy Office
            of Biological and Environmental Research, Office of Basic
            Energy Sciences, and the Office of Advanced Scientific Computing.


           Job information
           ---------------

    hostname        = erato
    program         = ../../../bin/LINUX64/nwchem
    date            = Mon Mar  1 01:33:43 2021

    compiled        = Sun_Feb_28_18:02:42_2021
    source          = /home/hvandam/nwchem-1-wfn1
    nwchem branch   = Development
    nwchem revision = nwchem_on_git-124-gad72d19fff205e319ffbbf2bca37a04ded6ad57b
    ga revision     = nwchem_on_git-124-gad72d19
    use scalapack   = F
    input           = input-wf.nw
    prefix          = wfn1_dat.
    data base       = ./wfn1_dat.db
    status          = startup
    nproc           =        1
    time left       =     -1s



           Memory information
           ------------------

    heap     =   13107200 doubles =    100.0 Mbytes
    stack    =   13107197 doubles =    100.0 Mbytes
    global   =   26214400 doubles =    200.0 Mbytes (distinct from heap & stack)
    total    =   52428797 doubles =    400.0 Mbytes
    verify   = yes
    hardfail = no 


           Directory information
           ---------------------

  0 permanent = .
  0 scratch   = .




                                NWChem Input Module
                                -------------------


 Turning off AUTOSYM since
 SYMMETRY directive was detected!



                             Geometry "geometry" -> ""
                             -------------------------

 Output coordinates in a.u. (scale by  1.000000000 to convert to a.u.)

  No.       Tag          Charge          X              Y              Z
 ---- ---------------- ---------- -------------- -------------- --------------
    1 H                    1.0000     0.00000000     0.00000000    -1.29434600
    2 H                    1.0000     0.00000000     0.00000000     1.29434600

      Atomic Mass 
      ----------- 

      H                  1.007825


 Effective nuclear repulsion energy (a.u.)       0.3862954728

            Nuclear Dipole moment (a.u.) 
            ----------------------------
        X                 Y               Z
 ---------------- ---------------- ----------------
     0.0000000000     0.0000000000     0.0000000000

      Symmetry information
      --------------------

 Group name             Cs        
 Group number              2
 Group order               2
 No. of unique centers     1

      Symmetry unique atoms

     1


            XYZ format geometry
            -------------------
     2
 geometry
 H                     0.00000000     0.00000000    -0.68493846
 H                     0.00000000     0.00000000     0.68493846

                      Basis "ao basis" -> "" (cartesian)
                      -----
  H (Hydrogen)
  ------------
            Exponent  Coefficients 
       -------------- ---------------------------------------------------------
  1 S  1.87311370E+01  0.033495
  1 S  2.82539370E+00  0.234727
  1 S  6.40121700E-01  0.813757

  2 S  1.61277800E-01  1.000000



 Summary of "ao basis" -> "" (cartesian)
 ------------------------------------------------------------------------------
       Tag                 Description            Shells   Functions and Types
 ---------------- ------------------------------  ------  ---------------------
 H                           6-31g                   2        2   2s



                                NWChem WFN1 Module
                                ------------------



          No. of electrons :     2
           Alpha electrons :     1
            Beta electrons :     1
          Charge           :     0
          Spin multiplicity:     1

 HvD: wfn1_inpdft
 HvD: nquad_task =                     1
 HvD: iangquad   =                     0
 HvD: gridtype   = user      
 HvD: leb        =  T
 HvD: radgrid    = murakn    
 HvD: trunc_neigh=  T
 HvD: lssw       =  T
 HvD: whichssw   = erf1    
 HvD: mxnrad     =                     0
 HvD: mxnang     =                     0
 HVD: wfn1: movecs_in  = atomic                                                                                                                                                                                                                                                          
 HVD: wfn1: movecs_out = ./wfn1_dat.movecs                                                                                                                                                                                                                                               

      Superposition of Atomic Density Guess
      -------------------------------------

 Sum of atomic energies:          -0.99646508

      Non-variational initial energy
      ------------------------------

 Total energy =      -0.742054
 1-e energy   =      -1.755921
 2-e energy   =       0.627572
 HOMO         =      -0.365133
 LUMO         =       0.001916

 iteration              energy           error
 ---------              ------           -----
         0         -1.03232174        0.080000
         1         -1.03382018        0.080000
         2         -1.03589758        0.080000
         3         -1.03743657        0.080000
         4         -1.03800453        0.080000
         5         -1.03874025        0.080000
         6         -1.03983455        0.080000
         7         -1.04101672        0.080000
         8         -1.04359739        0.080000
         9         -1.04485080        0.080000
        10         -1.04607999        0.080000
        11         -1.04727595        0.080000
        12         -1.04827337        0.080000
        13         -1.04882750        0.080000
        14         -1.04903640        0.080000
        15         -1.04908621        0.080000
        16         -1.04988653        0.080000
        17         -1.04995053        0.080000
        18         -1.05001488        0.080000
        19         -1.05025388        0.080000
        20         -1.05041880        0.080000
        21         -1.05068319        0.080000
        22         -1.05131245        0.080000
        23         -1.05133783        0.080000
        24         -1.05176135        0.080000
        25         -1.05193273        0.080000
        26         -1.05214033        0.080000
        27         -1.05286557        0.080000
        28         -1.05306617        0.080000
        29         -1.05315774        0.080000
        30         -1.05350284        0.080000
        31         -1.05357903        0.080000
        32         -1.05379960        0.080000
        33         -1.05383009        0.080000
        34         -1.05464619        0.080000
        35         -1.05466084        0.080000
        36         -1.05507945        0.080000
        37         -1.05566333        0.080000
        38         -1.05580538        0.080000
        39         -1.05583839        0.080000
        40         -1.05591981        0.080000
        41         -1.05601232        0.080000
        42         -1.05652136        0.080000
        43         -1.05666169        0.080000
        44         -1.05702227        0.080000
        45         -1.05703523        0.080000
        46         -1.05710922        0.080000
        47         -1.05711178        0.080000
        48         -1.05712178        0.080000
        49         -1.05732641        0.080000
        50         -1.05738034        0.080000
        51         -1.05746346        0.080000
        52         -1.05752748        0.080000
        53         -1.05761027        0.080000
        54         -1.05761373        0.080000
        55         -1.05764853        0.063496
        56         -1.05768101        0.063496
        57         -1.05769247        0.050397
        58         -1.05778156        0.050397
        59         -1.05781571        0.050397
        60         -1.05782331        0.050397
        61         -1.05783050        0.050397
        62         -1.05785061        0.040000
        63         -1.05786749        0.040000
        64         -1.05789702        0.040000
        65         -1.05791088        0.040000
        66         -1.05791764        0.040000
        67         -1.05792129        0.040000
        68         -1.05792962        0.040000
        69         -1.05795184        0.040000
        70         -1.05798192        0.040000
        71         -1.05801792        0.040000
        72         -1.05802702        0.040000
        73         -1.05804065        0.040000
        74         -1.05804654        0.040000
        75         -1.05804720        0.040000
        76         -1.05804746        0.040000
        77         -1.05806242        0.040000
        78         -1.05807544        0.040000
        79         -1.05808854        0.031748
        80         -1.05808973        0.025198
        81         -1.05809160        0.020000
        82         -1.05809219        0.020000
        83         -1.05809397        0.012599
        84         -1.05809532        0.012599
        85         -1.05809881        0.012599
        86         -1.05810027        0.010000
        87         -1.05810036        0.007937
        88         -1.05810038        0.007937
        89         -1.05810053        0.007937
        90         -1.05810158        0.007937
        91         -1.05810236        0.007937
        92         -1.05810256        0.006300
        93         -1.05810298        0.006300
        94         -1.05810338        0.006300
        95         -1.05810399        0.006300
        96         -1.05810410        0.005000
        97         -1.05810440        0.005000
        98         -1.05810454        0.003969
        99         -1.05810460        0.003969
       100         -1.05810484        0.003969
       101         -1.05810491        0.003969
       102         -1.05810495        0.003969
       103         -1.05810499        0.003969
       104         -1.05810504        0.002500
       105         -1.05810514        0.002500
       106         -1.05810520        0.002500
       107         -1.05810522        0.002500
       108         -1.05810524        0.002500
       109         -1.05810524        0.002500
       110         -1.05810537        0.002500
       111         -1.05810537        0.002500
       112         -1.05810544        0.002500
       113         -1.05810547        0.002500
       114         -1.05810549        0.002500
       115         -1.05810555        0.002500
       116         -1.05810572        0.002500
       117         -1.05810575        0.002500
       118         -1.05810575        0.002500
       119         -1.05810578        0.002500
       120         -1.05810579        0.002500
       121         -1.05810583        0.002500
       122         -1.05810588        0.002500
       123         -1.05810588        0.001575
       124         -1.05810589        0.001575
       125         -1.05810590        0.001575
       126         -1.05810592        0.001575
       127         -1.05810594        0.001575
       128         -1.05810597        0.001250
       129         -1.05810597        0.001250
       130         -1.05810599        0.000992
       131         -1.05810599        0.000992
       132         -1.05810600        0.000992
       133         -1.05810600        0.000992
       134         -1.05810600        0.000992
       135         -1.05810600        0.000992
       136         -1.05810601        0.000992
       137         -1.05810601        0.000992
       138         -1.05810601        0.000787
       139         -1.05810602        0.000787
       140         -1.05810602        0.000787
       141         -1.05810603        0.000787
       142         -1.05810604        0.000787
       143         -1.05810604        0.000625
       144         -1.05810605        0.000625
       145         -1.05810605        0.000496
       146         -1.05810605        0.000496
       147         -1.05810605        0.000496
       148         -1.05810605        0.000394
       149         -1.05810605        0.000394
       150         -1.05810605        0.000394
       151         -1.05810606        0.000394
       152         -1.05810606        0.000394
       153         -1.05810606        0.000394
       154         -1.05810606        0.000248
       155         -1.05810606        0.000248
       156         -1.05810606        0.000248
       157         -1.05810606        0.000248
       158         -1.05810606        0.000248
       159         -1.05810606        0.000248
       160         -1.05810606        0.000248
       161         -1.05810606        0.000197
       162         -1.05810606        0.000197
       163         -1.05810606        0.000197
       164         -1.05810606        0.000197
       165         -1.05810606        0.000197
       166         -1.05810606        0.000197
       167         -1.05810606        0.000197
       168         -1.05810606        0.000197
       169         -1.05810606        0.000197
       170         -1.05810606        0.000197
       171         -1.05810606        0.000197
       172         -1.05810606        0.000197
       173         -1.05810606        0.000197
       174         -1.05810606        0.000197
       175         -1.05810607        0.000197
       176         -1.05810607        0.000197
       177         -1.05810607        0.000197
       178         -1.05810607        0.000197
       179         -1.05810607        0.000197
       180         -1.05810607        0.000197
       181         -1.05810607        0.000124
       182         -1.05810607        0.000124
       183         -1.05810607        0.000124
       184         -1.05810607        0.000124
       185         -1.05810607        0.000124
       186         -1.05810607        0.000098
       187         -1.05810607        0.000098
       188         -1.05810607        0.000078
       189         -1.05810607        0.000078
       190         -1.05810607        0.000078
       191         -1.05810607        0.000078
       192         -1.05810607        0.000078
       193         -1.05810607        0.000078
       194         -1.05810607        0.000078
       195         -1.05810607        0.000078
       196         -1.05810607        0.000078
       197         -1.05810607        0.000062
       198         -1.05810607        0.000049
       199         -1.05810607        0.000049
       200         -1.05810607        0.000049
       201         -1.05810607        0.000049
       202         -1.05810607        0.000049
       203         -1.05810607        0.000049
       204         -1.05810607        0.000049
       205         -1.05810607        0.000039
       206         -1.05810607        0.000039
       207         -1.05810607        0.000039
       208         -1.05810607        0.000039
       209         -1.05810607        0.000039
       210         -1.05810607        0.000039
       211         -1.05810607        0.000039
       212         -1.05810607        0.000039
       213         -1.05810607        0.000039
       214         -1.05810607        0.000039
       215         -1.05810607        0.000039
       216         -1.05810607        0.000039
       217         -1.05810607        0.000031
       218         -1.05810607        0.000031
       219         -1.05810607        0.000031
       220         -1.05810607        0.000031
       221         -1.05810607        0.000031
       222         -1.05810607        0.000031
       223         -1.05810607        0.000031
       224         -1.05810607        0.000031
       225         -1.05810607        0.000031
       226         -1.05810607        0.000031
       227         -1.05810607        0.000031
       228         -1.05810607        0.000031
       229         -1.05810607        0.000031
       230         -1.05810607        0.000031
       231         -1.05810607        0.000031
       232         -1.05810607        0.000031
       233         -1.05810607        0.000031
       234         -1.05810607        0.000025
       235         -1.05810607        0.000025
       236         -1.05810607        0.000025
       237         -1.05810607        0.000025
       238         -1.05810607        0.000025
       239         -1.05810607        0.000025
       240         -1.05810607        0.000025
       241         -1.05810607        0.000025
       242         -1.05810607        0.000025
       243         -1.05810607        0.000025
       244         -1.05810607        0.000025
       245         -1.05810607        0.000025
       246         -1.05810607        0.000025
       247         -1.05810607        0.000025
       248         -1.05810607        0.000025
       249         -1.05810607        0.000025
       250         -1.05810607        0.000025
       251         -1.05810607        0.000025
       252         -1.05810607        0.000025
       253         -1.05810607        0.000025
       254         -1.05810607        0.000025
       255         -1.05810607        0.000025
       256         -1.05810607        0.000025
       257         -1.05810607        0.000025
       258         -1.05810607        0.000025
       259         -1.05810607        0.000025
       260         -1.05810607        0.000025
       261         -1.05810607        0.000025
       262         -1.05810607        0.000025
       263         -1.05810607        0.000025
       264         -1.05810607        0.000025
       265         -1.05810607        0.000025
       266         -1.05810607        0.000025
       267         -1.05810607        0.000020
       268         -1.05810607        0.000020
       269         -1.05810607        0.000020
       270         -1.05810607        0.000020
       271         -1.05810607        0.000020
       272         -1.05810607        0.000016
       273         -1.05810607        0.000016
       274         -1.05810607        0.000016
       275         -1.05810607        0.000016
       276         -1.05810607        0.000016
       277         -1.05810607        0.000016
       278         -1.05810607        0.000016
       279         -1.05810607        0.000016
       280         -1.05810607        0.000016
       281         -1.05810607        0.000016
       282         -1.05810607        0.000016
       283         -1.05810607        0.000016
       284         -1.05810607        0.000016
       285         -1.05810607        0.000016
       286         -1.05810607        0.000016
       287         -1.05810607        0.000016
       288         -1.05810607        0.000016
       289         -1.05810607        0.000016
       290         -1.05810607        0.000016
       291         -1.05810607        0.000016
       292         -1.05810607        0.000012
       293         -1.05810607        0.000012
       294         -1.05810607        0.000012
       295         -1.05810607        0.000012
       296         -1.05810607        0.000012
       297         -1.05810607        0.000012
       298         -1.05810607        0.000012
       299         -1.05810607        0.000012
       300         -1.05810607        0.000012
       301         -1.05810607        0.000012
       302         -1.05810607        0.000012
       303         -1.05810607        0.000012
       304         -1.05810607        0.000012
       305         -1.05810607        0.000012
       306         -1.05810607        0.000012
       307         -1.05810607        0.000012
       308         -1.05810607        0.000012
       309         -1.05810607        0.000012
       310         -1.05810607        0.000012
       311         -1.05810607        0.000012
       312         -1.05810607        0.000012
       313         -1.05810607        0.000012
       314         -1.05810607        0.000012
       315         -1.05810607        0.000012
       316         -1.05810607        0.000012
       317         -1.05810607        0.000012
       318         -1.05810607        0.000012
       319         -1.05810607        0.000012
       320         -1.05810607        0.000012
       321         -1.05810607        0.000012
       322         -1.05810607        0.000012
       323         -1.05810607        0.000012
       324         -1.05810607        0.000010
       325         -1.05810607        0.000010
       326         -1.05810607        0.000010
       327         -1.05810607        0.000010
       328         -1.05810607        0.000010
       329         -1.05810607        0.000010
       330         -1.05810607        0.000010
       331         -1.05810607        0.000010
       332         -1.05810607        0.000010
       333         -1.05810607        0.000010
       334         -1.05810607        0.000010
       335         -1.05810607        0.000010
       336         -1.05810607        0.000010
       337         -1.05810607        0.000010
       338         -1.05810607        0.000010
       339         -1.05810607        0.000010
       340         -1.05810607        0.000010
       341         -1.05810607        0.000010
       342         -1.05810607        0.000010
       343         -1.05810607        0.000010
       344         -1.05810607        0.000010
       345         -1.05810607        0.000010
       346         -1.05810607        0.000010
       347         -1.05810607        0.000010
       348         -1.05810607        0.000010
       349         -1.05810607        0.000010
       350         -1.05810607        0.000010
       351         -1.05810607        0.000010
       352         -1.05810607        0.000010
       353         -1.05810607        0.000010
       354         -1.05810607        0.000010
       355         -1.05810607        0.000010
       356         -1.05810607        0.000010
       357         -1.05810607        0.000010
       358         -1.05810607        0.000010
       359         -1.05810607        0.000010
       360         -1.05810607        0.000010
       361         -1.05810607        0.000010
       362         -1.05810607        0.000008
       363         -1.05810607        0.000008
       364         -1.05810607        0.000008
       365         -1.05810607        0.000008
       366         -1.05810607        0.000008
       367         -1.05810607        0.000008
       368         -1.05810607        0.000008
       369         -1.05810607        0.000008
       370         -1.05810607        0.000008
       371         -1.05810607        0.000008
       372         -1.05810607        0.000006
       373         -1.05810607        0.000006
       374         -1.05810607        0.000006
       375         -1.05810607        0.000006
       376         -1.05810607        0.000006
       377         -1.05810607        0.000006
       378         -1.05810607        0.000006
       379         -1.05810607        0.000006
       380         -1.05810607        0.000005
       381         -1.05810607        0.000005
       382         -1.05810607        0.000005
       383         -1.05810607        0.000005
       384         -1.05810607        0.000005
       385         -1.05810607        0.000005
       386         -1.05810607        0.000005
       387         -1.05810607        0.000005
       388         -1.05810607        0.000005
       389         -1.05810607        0.000004
       390         -1.05810607        0.000004
       391         -1.05810607        0.000004
       392         -1.05810607        0.000004
       393         -1.05810607        0.000004
       394         -1.05810607        0.000004
       395         -1.05810607        0.000004
       396         -1.05810607        0.000004
       397         -1.05810607        0.000004
       398         -1.05810607        0.000004
       399         -1.05810607        0.000004
       400         -1.05810607        0.000004
       401         -1.05810607        0.000004
       402         -1.05810607        0.000004
       403         -1.05810607        0.000004
       404         -1.05810607        0.000004
       405         -1.05810607        0.000004
       406         -1.05810607        0.000004
       407         -1.05810607        0.000004
       408         -1.05810607        0.000004
       409         -1.05810607        0.000004
       410         -1.05810607        0.000004
       411         -1.05810607        0.000004
       412         -1.05810607        0.000004
       413         -1.05810607        0.000004
       414         -1.05810607        0.000004
       415         -1.05810607        0.000004
       416         -1.05810607        0.000004
       417         -1.05810607        0.000004
       418         -1.05810607        0.000004
       419         -1.05810607        0.000004
       420         -1.05810607        0.000004
       421         -1.05810607        0.000004
       422         -1.05810607        0.000004
       423         -1.05810607        0.000004
       424         -1.05810607        0.000004
       425         -1.05810607        0.000004
       426         -1.05810607        0.000004
       427         -1.05810607        0.000004
       428         -1.05810607        0.000004
       429         -1.05810607        0.000004
       430         -1.05810607        0.000004
       431         -1.05810607        0.000004
       432         -1.05810607        0.000004
       433         -1.05810607        0.000004
       434         -1.05810607        0.000004
       435         -1.05810607        0.000004
       436         -1.05810607        0.000004
       437         -1.05810607        0.000004
       438         -1.05810607        0.000004
       439         -1.05810607        0.000004
       440         -1.05810607        0.000004
       441         -1.05810607        0.000004
       442         -1.05810607        0.000004
       443         -1.05810607        0.000004
       444         -1.05810607        0.000004
       445         -1.05810607        0.000004
       446         -1.05810607        0.000004
       447         -1.05810607        0.000004
       448         -1.05810607        0.000004
       449         -1.05810607        0.000004
       450         -1.05810607        0.000004
       451         -1.05810607        0.000004
       452         -1.05810607        0.000003
       453         -1.05810607        0.000003
       454         -1.05810607        0.000003
       455         -1.05810607        0.000003
       456         -1.05810607        0.000003
       457         -1.05810607        0.000003
       458         -1.05810607        0.000003
       459         -1.05810607        0.000003
       460         -1.05810607        0.000003
       461         -1.05810607        0.000003
       462         -1.05810607        0.000003
       463         -1.05810607        0.000003
       464         -1.05810607        0.000003
       465         -1.05810607        0.000003
       466         -1.05810607        0.000003
       467         -1.05810607        0.000003
       468         -1.05810607        0.000003
       469         -1.05810607        0.000003
       470         -1.05810607        0.000003
       471         -1.05810607        0.000003
       472         -1.05810607        0.000002
       473         -1.05810607        0.000002
       474         -1.05810607        0.000002
       475         -1.05810607        0.000002
       476         -1.05810607        0.000002
       477         -1.05810607        0.000002
       478         -1.05810607        0.000002
       479         -1.05810607        0.000002
       480         -1.05810607        0.000002
       481         -1.05810607        0.000002
       482         -1.05810607        0.000002
       483         -1.05810607        0.000002
       484         -1.05810607        0.000002
       485         -1.05810607        0.000002
       486         -1.05810607        0.000002
       487         -1.05810607        0.000002
       488         -1.05810607        0.000002
       489         -1.05810607        0.000002
       490         -1.05810607        0.000002
       491         -1.05810607        0.000002
       492         -1.05810607        0.000001
       493         -1.05810607        0.000001
       494         -1.05810607        0.000001
       495         -1.05810607        0.000001
       496         -1.05810607        0.000001
       497         -1.05810607        0.000001
       498         -1.05810607        0.000001
       499         -1.05810607        0.000001
       500         -1.05810607        0.000001
       501         -1.05810607        0.000001
       502         -1.05810607        0.000001
       503         -1.05810607        0.000001
       504         -1.05810607        0.000001
       505         -1.05810607        0.000001
       506         -1.05810607        0.000001
       507         -1.05810607        0.000001
       508         -1.05810607        0.000001
       509         -1.05810607        0.000001
       510         -1.05810607        0.000001
       511         -1.05810607        0.000001
       512         -1.05810607        0.000001
       513         -1.05810607        0.000001
       514         -1.05810607        0.000001
       515         -1.05810607        0.000001
       516         -1.05810607        0.000001
       517         -1.05810607        0.000001
       518         -1.05810607        0.000001
       519         -1.05810607        0.000001
       520         -1.05810607        0.000001
       521         -1.05810607        0.000001
       522         -1.05810607        0.000001
       523         -1.05810607        0.000001
       524         -1.05810607        0.000001
       525         -1.05810607        0.000001
       526         -1.05810607        0.000001
       527         -1.05810607        0.000001
       528         -1.05810607        0.000001
       529         -1.05810607        0.000001
       530         -1.05810607        0.000001
       531         -1.05810607        0.000001
       532         -1.05810607        0.000001
       533         -1.05810607        0.000001
       534         -1.05810607        0.000001
       535         -1.05810607        0.000001
       536         -1.05810607        0.000001
       537         -1.05810607        0.000001
       538         -1.05810607        0.000001
       539         -1.05810607        0.000001
       540         -1.05810607        0.000001
       541         -1.05810607        0.000001
       542         -1.05810607        0.000001
       543         -1.05810607        0.000001
       544         -1.05810607        0.000001
       545         -1.05810607        0.000001
       546         -1.05810607        0.000001

 Reached Convergence

 WFN1                     :
 --------------------------
 Total WFN1 energy  =          -1.0581060704
 1-Electron energy  =          -1.8291746437
 2-Electron energy  =           0.4921397148
 Correlation energy =          -0.1073666143
 DFT XC energy      =           0.0000000000
 Entropy energy     =           0.0000000000
 Nuclear energy     =           0.3862954728

 conventional Hartree-Fock:
 --------------------------
 Total SCF energy  =          -1.0019327664
 2-Electron energy =           0.5483130189

                WFN1 Final Natural orbital energies and occupations
                ---------------------------------------------------

              Alpha       Beta            Alpha       Beta  
            --------    --------        --------    --------
       1      0.0000      0.0000          0.9073      0.9073
       2      0.0000      0.0000          0.0768      0.0768
       3      0.0000      0.0000          0.0083      0.0083
       4      0.0000      0.0000          0.0077      0.0077

             WFN1 Final Correlation function energies and occupations
             --------------------------------------------------------

              Alpha       Beta            Alpha       Beta  
            --------    --------        --------    --------
       1      0.0000      0.0000          1.0000      1.0000
       2      0.0000      0.0000          0.0000      0.0000
       3      0.0000      0.0000          0.0000      0.0000
       4      0.0000      0.0000          0.0000      0.0000

                WFN1 Final alpha-alpha 2-matrix occupation numbers
                --------------------------------------------------


 global array: g_momo1[1:4,1:4],  handle: -990 

            1           2           3           4  
       ----------- ----------- ----------- -----------
   1       0.00000     0.00000    -0.00000     0.00000
   2      -0.00000     0.00000    -0.00000     0.00000
   3       0.00000     0.00000     0.00000     0.00000
   4       0.00000     0.00000     0.00000     0.00000

                 WFN1 Final beta-beta 2-matrix occupation numbers
                 ------------------------------------------------


 global array: g_momo2[1:4,1:4],  handle: -989 

            1           2           3           4  
       ----------- ----------- ----------- -----------
   1       0.00000     0.00000    -0.00000     0.00000
   2      -0.00000     0.00000    -0.00000     0.00000
   3       0.00000     0.00000     0.00000     0.00000
   4       0.00000     0.00000     0.00000     0.00000

                  WFN1 Final alpha Correlation Function Analysis
                  ----------------------------------------------


 global array: Ca[1:4,1:4],  handle: -981 

                     1                       2                       3                       4  
       ----------------------- ----------------------- ----------------------- -----------------------
   1       0.89132,    0.33591    -0.25546,   -0.11540     0.11420,   -0.01091     0.02061,    0.02361
   2       0.18078,    0.20996     0.59421,    0.74896     0.05737,   -0.05224    -0.05203,    0.02193
   3      -0.01269,   -0.09006     0.02621,    0.03121     0.32970,    0.63438     0.32525,    0.61086
   4       0.04588,   -0.07470     0.07266,   -0.02137     0.24974,    0.63821    -0.26670,   -0.66766

                   WFN1 Final beta Correlation Function Analysis
                   ---------------------------------------------


 global array: Cb[1:4,1:4],  handle: -980 

                     1                       2                       3                       4  
       ----------------------- ----------------------- ----------------------- -----------------------
   1       0.89132,    0.33591    -0.25546,   -0.11540     0.11420,   -0.01091     0.02061,    0.02361
   2       0.18078,    0.20996     0.59421,    0.74896     0.05737,   -0.05224    -0.05203,    0.02193
   3      -0.01269,   -0.09006     0.02621,    0.03121     0.32970,    0.63438     0.32525,    0.61086
   4       0.04588,   -0.07470     0.07266,   -0.02137     0.24974,    0.63821    -0.26670,   -0.66766

                     WFN1 Final Alpha Natural Orbital Analysis
                     -----------------------------------------

 Vector    1  Occ=9.072782D-01  E= 0.000000D+00
              MO Center=  0.0D+00,  0.0D+00, -2.2D-07, r^2= 1.2D+00
   Bfn.  Coefficient  Atom+Function         Bfn.  Coefficient  Atom+Function  
  ----- ------------  ---------------      ----- ------------  ---------------
     2     -0.393529  1 H  s                  4     -0.393529  2 H  s          
     1     -0.252988  1 H  s                  3     -0.252988  2 H  s          

 Vector    2  Occ=7.676661D-02  E= 0.000000D+00
              MO Center=  0.0D+00,  0.0D+00, -8.4D-08, r^2= 1.6D+00
   Bfn.  Coefficient  Atom+Function         Bfn.  Coefficient  Atom+Function  
  ----- ------------  ---------------      ----- ------------  ---------------
     2     -0.727639  1 H  s                  4      0.727636  2 H  s          
     1     -0.325139  1 H  s                  3      0.325142  2 H  s          

 Vector    3  Occ=8.271111D-03  E= 0.000000D+00
              MO Center=  0.0D+00,  0.0D+00,  3.5D-06, r^2= 2.1D+00
   Bfn.  Coefficient  Atom+Function         Bfn.  Coefficient  Atom+Function  
  ----- ------------  ---------------      ----- ------------  ---------------
     2      1.195932  1 H  s                  4     -1.195935  2 H  s          
     1     -0.888278  1 H  s                  3      0.888281  2 H  s          

 Vector    4  Occ=7.684063D-03  E= 0.000000D+00
              MO Center=  0.0D+00,  0.0D+00, -3.2D-06, r^2= 1.7D+00
   Bfn.  Coefficient  Atom+Function         Bfn.  Coefficient  Atom+Function  
  ----- ------------  ---------------      ----- ------------  ---------------
     1     -0.930661  1 H  s                  3     -0.930656  2 H  s          
     2      0.695139  1 H  s                  4      0.695136  2 H  s          


                     WFN1 Final Beta Natural Orbital Analysis
                     ----------------------------------------

 Vector    1  Occ=9.072782D-01  E= 0.000000D+00
              MO Center=  0.0D+00,  0.0D+00, -2.2D-07, r^2= 1.2D+00
   Bfn.  Coefficient  Atom+Function         Bfn.  Coefficient  Atom+Function  
  ----- ------------  ---------------      ----- ------------  ---------------
     2     -0.393529  1 H  s                  4     -0.393529  2 H  s          
     1     -0.252988  1 H  s                  3     -0.252988  2 H  s          

 Vector    2  Occ=7.676661D-02  E= 0.000000D+00
              MO Center=  0.0D+00,  0.0D+00, -8.4D-08, r^2= 1.6D+00
   Bfn.  Coefficient  Atom+Function         Bfn.  Coefficient  Atom+Function  
  ----- ------------  ---------------      ----- ------------  ---------------
     2     -0.727639  1 H  s                  4      0.727636  2 H  s          
     1     -0.325139  1 H  s                  3      0.325142  2 H  s          

 Vector    3  Occ=8.271111D-03  E= 0.000000D+00
              MO Center=  0.0D+00,  0.0D+00,  3.5D-06, r^2= 2.1D+00
   Bfn.  Coefficient  Atom+Function         Bfn.  Coefficient  Atom+Function  
  ----- ------------  ---------------      ----- ------------  ---------------
     2      1.195932  1 H  s                  4     -1.195935  2 H  s          
     1     -0.888278  1 H  s                  3      0.888281  2 H  s          

 Vector    4  Occ=7.684063D-03  E= 0.000000D+00
              MO Center=  0.0D+00,  0.0D+00, -3.2D-06, r^2= 1.7D+00
   Bfn.  Coefficient  Atom+Function         Bfn.  Coefficient  Atom+Function  
  ----- ------------  ---------------      ----- ------------  ---------------
     1     -0.930661  1 H  s                  3     -0.930656  2 H  s          
     2      0.695139  1 H  s                  4      0.695136  2 H  s          


 Task  times  cpu:       20.1s     wall:       27.3s
 Summary of allocated global arrays
-----------------------------------
  No active global arrays



                         GA Statistics for process    0
                         ------------------------------

       create   destroy   get      put      acc     scatter   gather  read&inc
calls:   44       44     1.15e+07 2.40e+04 3.16e+04    0        0       11     
number of processes/call 1.00e+00 1.00e+00 1.00e+00 0.00e+00 0.00e+00
bytes total:             1.48e+09 4.04e+06 5.04e+06 0.00e+00 0.00e+00 8.80e+01
bytes remote:            0.00e+00 0.00e+00 0.00e+00 0.00e+00 0.00e+00 0.00e+00
Max memory consumed for GA by this process: 10624 bytes
MA_summarize_allocated_blocks: starting scan ...
MA_summarize_allocated_blocks: scan completed: 0 heap blocks, 0 stack blocks
MA usage statistics:

	allocation statistics:
					      heap	     stack
					      ----	     -----
	current number of blocks	         0	         0
	maximum number of blocks	        19	        17
	current total bytes		         0	         0
	maximum total bytes		   3204328	  22508616
	maximum total K-bytes		      3205	     22509
	maximum total M-bytes		         4	        23


                                NWChem Input Module
                                -------------------





                                     CITATION
                                     --------
                Please cite the following reference when publishing
                           results obtained with NWChem:

                 M. Valiev, E.J. Bylaska, N. Govind, K. Kowalski,
              T.P. Straatsma, H.J.J. van Dam, D. Wang, J. Nieplocha,
                        E. Apra, T.L. Windus, W.A. de Jong
                 "NWChem: a comprehensive and scalable open-source
                  solution for large scale molecular simulations"
                      Comput. Phys. Commun. 181, 1477 (2010)
                           doi:10.1016/j.cpc.2010.04.018

                                      AUTHORS
                                      -------
          E. Apra, E. J. Bylaska, W. A. de Jong, N. Govind, K. Kowalski,
       T. P. Straatsma, M. Valiev, H. J. J. van Dam, D. Wang, T. L. Windus,
        J. Hammond, J. Autschbach, K. Bhaskaran-Nair, J. Brabec, K. Lopata,
    S. A. Fischer, S. Krishnamoorthy, M. Jacquelin, W. Ma, M. Klemm, O. Villa,
      Y. Chen, V. Anisimov, F. Aquino, S. Hirata, M. T. Hackler, V. Konjkov,
      T. Risthaus, M. Malagoli, A. Marenich, A. Otero-de-la-Roza, J. Mullin,
        P. Nichols, R. Peverati, J. Pittner, Y. Zhao, P.-D. Fan, A. Fonari,
       M. Williamson, R. J. Harrison, J. R. Rehr, M. Dupuis, D. Silverstein,
    D. M. A. Smith, J. Nieplocha, V. Tipparaju, M. Krishnan, B. E. Van Kuiken,
        A. Vazquez-Mayagoitia, L. Jensen, M. Swart, Q. Wu, T. Van Voorhis,
     A. A. Auer, M. Nooijen, L. D. Crosby, E. Brown, G. Cisneros, G. I. Fann,
   H. Fruchtl, J. Garza, K. Hirao, R. A. Kendall, J. A. Nichols, K. Tsemekhman,
    K. Wolinski, J. Anchell, D. E. Bernholdt, P. Borowski, T. Clark, D. Clerc,
   H. Dachsel, M. J. O. Deegan, K. Dyall, D. Elwood, E. Glendening, M. Gutowski,
   A. C. Hess, J. Jaffe, B. G. Johnson, J. Ju, R. Kobayashi, R. Kutteh, Z. Lin,
   R. Littlefield, X. Long, B. Meng, T. Nakajima, S. Niu, L. Pollack, M. Rosing,
   K. Glaesemann, G. Sandrone, M. Stave, H. Taylor, G. Thomas, J. H. van Lenthe,
                               A. T. Wong, Z. Zhang.

 Total times  cpu:       20.1s     wall:       27.3s
