 argument  1 = input-wf.nw



============================== echo of input deck ==============================
echo
start wfn1_dat
geometry units au noautoz
  H 0 0 -3.24434600000000000000
  H 0 0  3.24434600000000000000
  symmetry cs
end
basis
  H library 6-31g
end
set wfn1:input_vectors "atomic"
set wfn1:solver "monte-carlo"
set wfn1:print_error F
set wfn1:t_initial 0.1
#set wfn1:corr_expr "wfn1_mx"
set wfn1:corr_expr "wfn1c"
set wfn1:t_bath 0.0
set wfn1:maxit  20000
task wfn1 energy
================================================================================


                                         
                                         


              Northwest Computational Chemistry Package (NWChem) 6.8
              ------------------------------------------------------


                    Environmental Molecular Sciences Laboratory
                       Pacific Northwest National Laboratory
                                Richland, WA 99352

                              Copyright (c) 1994-2015
                       Pacific Northwest National Laboratory
                            Battelle Memorial Institute

             NWChem is an open-source computational chemistry package
                        distributed under the terms of the
                      Educational Community License (ECL) 2.0
             A copy of the license is included with this distribution
                              in the LICENSE.TXT file

                                  ACKNOWLEDGMENT
                                  --------------

            This software and its documentation were developed at the
            EMSL at Pacific Northwest National Laboratory, a multiprogram
            national laboratory, operated for the U.S. Department of Energy
            by Battelle under Contract Number DE-AC05-76RL01830. Support
            for this work was provided by the Department of Energy Office
            of Biological and Environmental Research, Office of Basic
            Energy Sciences, and the Office of Advanced Scientific Computing.


           Job information
           ---------------

    hostname        = erato
    program         = ../../../bin/LINUX64/nwchem
    date            = Mon Mar  1 01:45:16 2021

    compiled        = Sun_Feb_28_18:02:42_2021
    source          = /home/hvandam/nwchem-1-wfn1
    nwchem branch   = Development
    nwchem revision = nwchem_on_git-124-gad72d19fff205e319ffbbf2bca37a04ded6ad57b
    ga revision     = nwchem_on_git-124-gad72d19
    use scalapack   = F
    input           = input-wf.nw
    prefix          = wfn1_dat.
    data base       = ./wfn1_dat.db
    status          = startup
    nproc           =        1
    time left       =     -1s



           Memory information
           ------------------

    heap     =   13107198 doubles =    100.0 Mbytes
    stack    =   13107195 doubles =    100.0 Mbytes
    global   =   26214400 doubles =    200.0 Mbytes (distinct from heap & stack)
    total    =   52428793 doubles =    400.0 Mbytes
    verify   = yes
    hardfail = no 


           Directory information
           ---------------------

  0 permanent = .
  0 scratch   = .




                                NWChem Input Module
                                -------------------


 Turning off AUTOSYM since
 SYMMETRY directive was detected!



                             Geometry "geometry" -> ""
                             -------------------------

 Output coordinates in a.u. (scale by  1.000000000 to convert to a.u.)

  No.       Tag          Charge          X              Y              Z
 ---- ---------------- ---------- -------------- -------------- --------------
    1 H                    1.0000     0.00000000     0.00000000    -3.24434600
    2 H                    1.0000     0.00000000     0.00000000     3.24434600

      Atomic Mass 
      ----------- 

      H                  1.007825


 Effective nuclear repulsion energy (a.u.)       0.1541142652

            Nuclear Dipole moment (a.u.) 
            ----------------------------
        X                 Y               Z
 ---------------- ---------------- ----------------
     0.0000000000     0.0000000000     0.0000000000

      Symmetry information
      --------------------

 Group name             Cs        
 Group number              2
 Group order               2
 No. of unique centers     1

      Symmetry unique atoms

     1


            XYZ format geometry
            -------------------
     2
 geometry
 H                     0.00000000     0.00000000    -1.71683409
 H                     0.00000000     0.00000000     1.71683409

                      Basis "ao basis" -> "" (cartesian)
                      -----
  H (Hydrogen)
  ------------
            Exponent  Coefficients 
       -------------- ---------------------------------------------------------
  1 S  1.87311370E+01  0.033495
  1 S  2.82539370E+00  0.234727
  1 S  6.40121700E-01  0.813757

  2 S  1.61277800E-01  1.000000



 Summary of "ao basis" -> "" (cartesian)
 ------------------------------------------------------------------------------
       Tag                 Description            Shells   Functions and Types
 ---------------- ------------------------------  ------  ---------------------
 H                           6-31g                   2        2   2s



                                NWChem WFN1 Module
                                ------------------



          No. of electrons :     2
           Alpha electrons :     1
            Beta electrons :     1
          Charge           :     0
          Spin multiplicity:     1

 HvD: wfn1_inpdft
 HvD: nquad_task =                     1
 HvD: iangquad   =                     0
 HvD: gridtype   = user      
 HvD: leb        =  T
 HvD: radgrid    = murakn    
 HvD: trunc_neigh=  T
 HvD: lssw       =  T
 HvD: whichssw   = erf1    
 HvD: mxnrad     =                     0
 HvD: mxnang     =                     0
 HVD: wfn1: movecs_in  = atomic                                                                                                                                                                                                                                                          
 HVD: wfn1: movecs_out = ./wfn1_dat.movecs                                                                                                                                                                                                                                               

      Superposition of Atomic Density Guess
      -------------------------------------

 Sum of atomic energies:          -0.99646508

      Non-variational initial energy
      ------------------------------

 Total energy =      -0.682177
 1-e energy   =      -1.304694
 2-e energy   =       0.468403
 HOMO         =      -0.200551
 LUMO         =      -0.181653

 iteration              energy           error
 ---------              ------           -----
         0         -0.88241357        0.080000
         1         -0.88336429        0.080000
         2         -0.88637698        0.080000
         3         -0.89098192        0.080000
         4         -0.89237753        0.080000
         5         -0.89535576        0.080000
         6         -0.89604277        0.080000
         7         -0.90230986        0.080000
         8         -0.90614806        0.080000
         9         -0.90646917        0.080000
        10         -0.90997717        0.080000
        11         -0.91336312        0.080000
        12         -0.91497954        0.080000
        13         -0.91586500        0.080000
        14         -0.91931496        0.080000
        15         -0.92116391        0.080000
        16         -0.92158759        0.080000
        17         -0.92334772        0.080000
        18         -0.92689883        0.080000
        19         -0.92883099        0.080000
        20         -0.93095244        0.080000
        21         -0.93100326        0.080000
        22         -0.93155330        0.080000
        23         -0.93279094        0.080000
        24         -0.93351550        0.080000
        25         -0.93589158        0.080000
        26         -0.93921928        0.080000
        27         -0.94063330        0.080000
        28         -0.94252229        0.080000
        29         -0.94325508        0.080000
        30         -0.94454875        0.080000
        31         -0.94573719        0.080000
        32         -0.94581400        0.080000
        33         -0.94663639        0.080000
        34         -0.94696910        0.080000
        35         -0.94707545        0.080000
        36         -0.94741338        0.080000
        37         -0.94763712        0.080000
        38         -0.94812784        0.080000
        39         -0.94861764        0.080000
        40         -0.94876221        0.080000
        41         -0.94891630        0.080000
        42         -0.94893451        0.080000
        43         -0.94908525        0.080000
        44         -0.94924153        0.080000
        45         -0.94944077        0.080000
        46         -0.94944405        0.080000
        47         -0.94945596        0.080000
        48         -0.94950845        0.080000
        49         -0.94957681        0.080000
        50         -0.94961276        0.080000
        51         -0.94962321        0.080000
        52         -0.94963671        0.080000
        53         -0.94964235        0.080000
        54         -0.94965493        0.080000
        55         -0.94967016        0.040000
        56         -0.94967549        0.031748
        57         -0.94968014        0.031748
        58         -0.94969341        0.031748
        59         -0.94969881        0.025198
        60         -0.94970044        0.025198
        61         -0.94970802        0.025198
        62         -0.94970951        0.025198
        63         -0.94972467        0.025198
        64         -0.94972761        0.025198
        65         -0.94972797        0.025198
        66         -0.94972989        0.025198
        67         -0.94973194        0.015874
        68         -0.94973508        0.015874
        69         -0.94973988        0.015874
        70         -0.94974464        0.012599
        71         -0.94974703        0.012599
        72         -0.94975005        0.012599
        73         -0.94975290        0.012599
        74         -0.94975319        0.012599
        75         -0.94975418        0.012599
        76         -0.94975661        0.012599
        77         -0.94975881        0.012599
        78         -0.94975900        0.010000
        79         -0.94976014        0.007937
        80         -0.94976028        0.005000
        81         -0.94976048        0.005000
        82         -0.94976095        0.005000
        83         -0.94976198        0.005000
        84         -0.94976205        0.005000
        85         -0.94976260        0.005000
        86         -0.94976286        0.005000
        87         -0.94976315        0.005000
        88         -0.94976345        0.005000
        89         -0.94976371        0.005000
        90         -0.94976382        0.005000
        91         -0.94976397        0.005000
        92         -0.94976424        0.005000
        93         -0.94976470        0.005000
        94         -0.94976565        0.005000
        95         -0.94976608        0.005000
        96         -0.94976611        0.005000
        97         -0.94976621        0.005000
        98         -0.94976646        0.005000
        99         -0.94976666        0.005000
       100         -0.94976710        0.005000
       101         -0.94976736        0.005000
       102         -0.94976746        0.005000
       103         -0.94976751        0.005000
       104         -0.94976785        0.005000
       105         -0.94976814        0.005000
       106         -0.94976833        0.005000
       107         -0.94976883        0.005000
       108         -0.94976896        0.005000
       109         -0.94976908        0.003969
       110         -0.94976909        0.002500
       111         -0.94976911        0.002500
       112         -0.94976912        0.002500
       113         -0.94976915        0.002500
       114         -0.94976916        0.001984
       115         -0.94976917        0.001250
       116         -0.94976918        0.000992
       117         -0.94976919        0.000992
       118         -0.94976919        0.000992
       119         -0.94976920        0.000992
       120         -0.94976921        0.000787
       121         -0.94976922        0.000787
       122         -0.94976922        0.000787
       123         -0.94976922        0.000625
       124         -0.94976923        0.000625
       125         -0.94976923        0.000625
       126         -0.94976923        0.000625
       127         -0.94976923        0.000394
       128         -0.94976923        0.000394
       129         -0.94976923        0.000394
       130         -0.94976923        0.000248
       131         -0.94976923        0.000124
       132         -0.94976923        0.000124
       133         -0.94976923        0.000124
       134         -0.94976923        0.000124
       135         -0.94976923        0.000098
       136         -0.94976923        0.000098
       137         -0.94976923        0.000098
       138         -0.94976923        0.000098
       139         -0.94976923        0.000098
       140         -0.94976923        0.000098
       141         -0.94976923        0.000098
       142         -0.94976923        0.000098
       143         -0.94976923        0.000078
       144         -0.94976923        0.000078
       145         -0.94976923        0.000078
       146         -0.94976923        0.000078
       147         -0.94976923        0.000062
       148         -0.94976923        0.000062
       149         -0.94976923        0.000062
       150         -0.94976923        0.000049
       151         -0.94976923        0.000039
       152         -0.94976923        0.000039
       153         -0.94976923        0.000031
       154         -0.94976923        0.000031
       155         -0.94976923        0.000031
       156         -0.94976923        0.000025
       157         -0.94976923        0.000025
       158         -0.94976923        0.000020
       159         -0.94976923        0.000020
       160         -0.94976923        0.000020
       161         -0.94976923        0.000020
       162         -0.94976923        0.000016
       163         -0.94976923        0.000016
       164         -0.94976923        0.000016
       165         -0.94976923        0.000016
       166         -0.94976923        0.000016
       167         -0.94976923        0.000016
       168         -0.94976923        0.000016
       169         -0.94976923        0.000016
       170         -0.94976923        0.000016
       171         -0.94976923        0.000016
       172         -0.94976923        0.000010
       173         -0.94976923        0.000010
       174         -0.94976923        0.000008
       175         -0.94976923        0.000008
       176         -0.94976923        0.000008
       177         -0.94976923        0.000008
       178         -0.94976923        0.000008
       179         -0.94976923        0.000006
       180         -0.94976923        0.000006
       181         -0.94976923        0.000006
       182         -0.94976923        0.000006
       183         -0.94976923        0.000006
       184         -0.94976923        0.000006
       185         -0.94976923        0.000006
       186         -0.94976923        0.000005
       187         -0.94976923        0.000005
       188         -0.94976923        0.000005
       189         -0.94976923        0.000005
       190         -0.94976923        0.000004
       191         -0.94976923        0.000004
       192         -0.94976923        0.000004
       193         -0.94976923        0.000004
       194         -0.94976923        0.000004
       195         -0.94976923        0.000004
       196         -0.94976923        0.000003
       197         -0.94976923        0.000002
       198         -0.94976923        0.000002
       199         -0.94976923        0.000002
       200         -0.94976923        0.000002
       201         -0.94976923        0.000002
       202         -0.94976923        0.000002
       203         -0.94976923        0.000002
       204         -0.94976923        0.000002
       205         -0.94976923        0.000001
       206         -0.94976923        0.000001
       207         -0.94976923        0.000001
       208         -0.94976923        0.000001

 Reached Convergence

 WFN1                     :
 --------------------------
 Total WFN1 energy  =          -0.9497692292
 1-Electron energy  =          -1.2360776199
 2-Electron energy  =           0.3723685070
 Correlation energy =          -0.2401743815
 DFT XC energy      =           0.0000000000
 Entropy energy     =           0.0000000000
 Nuclear energy     =           0.1541142652

 conventional Hartree-Fock:
 --------------------------
 Total SCF energy  =          -0.8585013645
 2-Electron energy =           0.4636363717

                WFN1 Final Natural orbital energies and occupations
                ---------------------------------------------------

              Alpha       Beta            Alpha       Beta  
            --------    --------        --------    --------
       1      0.0000      0.0000          0.5246      0.5246
       2      0.0000      0.0000          0.4419      0.4419
       3      0.0000      0.0000          0.0179      0.0179
       4      0.0000      0.0000          0.0156      0.0156

             WFN1 Final Correlation function energies and occupations
             --------------------------------------------------------

              Alpha       Beta            Alpha       Beta  
            --------    --------        --------    --------
       1      0.0000      0.0000          1.0000      1.0000
       2      0.0000      0.0000          0.0000      0.0000
       3      0.0000      0.0000          0.0000      0.0000
       4      0.0000      0.0000          0.0000      0.0000

                WFN1 Final alpha-alpha 2-matrix occupation numbers
                --------------------------------------------------


 global array: g_momo1[1:4,1:4],  handle: -990 

            1           2           3           4  
       ----------- ----------- ----------- -----------
   1       0.00000     0.00000     0.00000     0.00000
   2       0.00000     0.00000    -0.00000     0.00000
   3       0.00000     0.00000     0.00000     0.00000
   4       0.00000    -0.00000     0.00000     0.00000

                 WFN1 Final beta-beta 2-matrix occupation numbers
                 ------------------------------------------------


 global array: g_momo2[1:4,1:4],  handle: -989 

            1           2           3           4  
       ----------- ----------- ----------- -----------
   1       0.00000     0.00000     0.00000     0.00000
   2       0.00000     0.00000    -0.00000     0.00000
   3       0.00000     0.00000     0.00000     0.00000
   4       0.00000    -0.00000     0.00000     0.00000

                  WFN1 Final alpha Correlation Function Analysis
                  ----------------------------------------------


 global array: Ca[1:4,1:4],  handle: -981 

                     1                       2                       3                       4  
       ----------------------- ----------------------- ----------------------- -----------------------
   1       0.56927,   -0.44784     0.52413,   -0.41291     0.03699,   -0.01326    -0.08428,    0.14671
   2      -0.66278,    0.05122     0.73991,   -0.04638    -0.01729,    0.01546     0.08845,    0.01080
   3      -0.00741,   -0.13355     0.00904,   -0.03430     0.19553,    0.79576    -0.10595,   -0.54604
   4       0.08553,    0.09088    -0.00786,    0.06215     0.49205,    0.29043     0.67830,    0.44040

                   WFN1 Final beta Correlation Function Analysis
                   ---------------------------------------------


 global array: Cb[1:4,1:4],  handle: -980 

                     1                       2                       3                       4  
       ----------------------- ----------------------- ----------------------- -----------------------
   1       0.56927,   -0.44784     0.52413,   -0.41291     0.03699,   -0.01326    -0.08428,    0.14671
   2      -0.66278,    0.05122     0.73991,   -0.04638    -0.01729,    0.01546     0.08845,    0.01080
   3      -0.00741,   -0.13355     0.00904,   -0.03430     0.19553,    0.79576    -0.10595,   -0.54604
   4       0.08553,    0.09088    -0.00786,    0.06215     0.49205,    0.29043     0.67830,    0.44040

                     WFN1 Final Alpha Natural Orbital Analysis
                     -----------------------------------------

 Vector    1  Occ=5.246296D-01  E= 0.000000D+00
              MO Center=  0.0D+00,  0.0D+00,  1.4D-07, r^2= 3.8D+00
   Bfn.  Coefficient  Atom+Function         Bfn.  Coefficient  Atom+Function  
  ----- ------------  ---------------      ----- ------------  ---------------
     2     -0.516150  1 H  s                  4     -0.516150  2 H  s          
     1     -0.242827  1 H  s                  3     -0.242827  2 H  s          

 Vector    2  Occ=4.419053D-01  E= 0.000000D+00
              MO Center=  0.0D+00,  0.0D+00, -1.2D-07, r^2= 3.9D+00
   Bfn.  Coefficient  Atom+Function         Bfn.  Coefficient  Atom+Function  
  ----- ------------  ---------------      ----- ------------  ---------------
     2     -0.510809  1 H  s                  4      0.510809  2 H  s          
     1     -0.265092  1 H  s                  3      0.265092  2 H  s          

 Vector    3  Occ=1.789103D-02  E= 0.000000D+00
              MO Center=  0.0D+00,  0.0D+00, -6.2D-07, r^2= 3.9D+00
   Bfn.  Coefficient  Atom+Function         Bfn.  Coefficient  Atom+Function  
  ----- ------------  ---------------      ----- ------------  ---------------
     1      0.898431  1 H  s                  3      0.898430  2 H  s          
     2     -0.756061  1 H  s                  4     -0.756061  2 H  s          

 Vector    4  Occ=1.557407D-02  E= 0.000000D+00
              MO Center=  0.0D+00,  0.0D+00,  6.0D-07, r^2= 4.2D+00
   Bfn.  Coefficient  Atom+Function         Bfn.  Coefficient  Atom+Function  
  ----- ------------  ---------------      ----- ------------  ---------------
     1     -0.911139  1 H  s                  3      0.911139  2 H  s          
     2      0.819003  1 H  s                  4     -0.819003  2 H  s          


                     WFN1 Final Beta Natural Orbital Analysis
                     ----------------------------------------

 Vector    1  Occ=5.246296D-01  E= 0.000000D+00
              MO Center=  0.0D+00,  0.0D+00,  1.4D-07, r^2= 3.8D+00
   Bfn.  Coefficient  Atom+Function         Bfn.  Coefficient  Atom+Function  
  ----- ------------  ---------------      ----- ------------  ---------------
     2     -0.516150  1 H  s                  4     -0.516150  2 H  s          
     1     -0.242827  1 H  s                  3     -0.242827  2 H  s          

 Vector    2  Occ=4.419053D-01  E= 0.000000D+00
              MO Center=  0.0D+00,  0.0D+00, -1.2D-07, r^2= 3.9D+00
   Bfn.  Coefficient  Atom+Function         Bfn.  Coefficient  Atom+Function  
  ----- ------------  ---------------      ----- ------------  ---------------
     2     -0.510809  1 H  s                  4      0.510809  2 H  s          
     1     -0.265092  1 H  s                  3      0.265092  2 H  s          

 Vector    3  Occ=1.789103D-02  E= 0.000000D+00
              MO Center=  0.0D+00,  0.0D+00, -6.2D-07, r^2= 3.9D+00
   Bfn.  Coefficient  Atom+Function         Bfn.  Coefficient  Atom+Function  
  ----- ------------  ---------------      ----- ------------  ---------------
     1      0.898431  1 H  s                  3      0.898430  2 H  s          
     2     -0.756061  1 H  s                  4     -0.756061  2 H  s          

 Vector    4  Occ=1.557407D-02  E= 0.000000D+00
              MO Center=  0.0D+00,  0.0D+00,  6.0D-07, r^2= 4.2D+00
   Bfn.  Coefficient  Atom+Function         Bfn.  Coefficient  Atom+Function  
  ----- ------------  ---------------      ----- ------------  ---------------
     1     -0.911139  1 H  s                  3      0.911139  2 H  s          
     2      0.819003  1 H  s                  4     -0.819003  2 H  s          


 Task  times  cpu:       11.9s     wall:       18.5s
 Summary of allocated global arrays
-----------------------------------
  No active global arrays



                         GA Statistics for process    0
                         ------------------------------

       create   destroy   get      put      acc     scatter   gather  read&inc
calls:   44       44     6.58e+06 1.39e+04 1.80e+04    0        0       11     
number of processes/call 1.00e+00 1.00e+00 1.00e+00 0.00e+00 0.00e+00
bytes total:             8.45e+08 2.31e+06 2.88e+06 0.00e+00 0.00e+00 8.80e+01
bytes remote:            0.00e+00 0.00e+00 0.00e+00 0.00e+00 0.00e+00 0.00e+00
Max memory consumed for GA by this process: 10624 bytes
MA_summarize_allocated_blocks: starting scan ...
MA_summarize_allocated_blocks: scan completed: 0 heap blocks, 0 stack blocks
MA usage statistics:

	allocation statistics:
					      heap	     stack
					      ----	     -----
	current number of blocks	         0	         0
	maximum number of blocks	        19	        17
	current total bytes		         0	         0
	maximum total bytes		   3204344	  22508664
	maximum total K-bytes		      3205	     22509
	maximum total M-bytes		         4	        23


                                NWChem Input Module
                                -------------------





                                     CITATION
                                     --------
                Please cite the following reference when publishing
                           results obtained with NWChem:

                 M. Valiev, E.J. Bylaska, N. Govind, K. Kowalski,
              T.P. Straatsma, H.J.J. van Dam, D. Wang, J. Nieplocha,
                        E. Apra, T.L. Windus, W.A. de Jong
                 "NWChem: a comprehensive and scalable open-source
                  solution for large scale molecular simulations"
                      Comput. Phys. Commun. 181, 1477 (2010)
                           doi:10.1016/j.cpc.2010.04.018

                                      AUTHORS
                                      -------
          E. Apra, E. J. Bylaska, W. A. de Jong, N. Govind, K. Kowalski,
       T. P. Straatsma, M. Valiev, H. J. J. van Dam, D. Wang, T. L. Windus,
        J. Hammond, J. Autschbach, K. Bhaskaran-Nair, J. Brabec, K. Lopata,
    S. A. Fischer, S. Krishnamoorthy, M. Jacquelin, W. Ma, M. Klemm, O. Villa,
      Y. Chen, V. Anisimov, F. Aquino, S. Hirata, M. T. Hackler, V. Konjkov,
      T. Risthaus, M. Malagoli, A. Marenich, A. Otero-de-la-Roza, J. Mullin,
        P. Nichols, R. Peverati, J. Pittner, Y. Zhao, P.-D. Fan, A. Fonari,
       M. Williamson, R. J. Harrison, J. R. Rehr, M. Dupuis, D. Silverstein,
    D. M. A. Smith, J. Nieplocha, V. Tipparaju, M. Krishnan, B. E. Van Kuiken,
        A. Vazquez-Mayagoitia, L. Jensen, M. Swart, Q. Wu, T. Van Voorhis,
     A. A. Auer, M. Nooijen, L. D. Crosby, E. Brown, G. Cisneros, G. I. Fann,
   H. Fruchtl, J. Garza, K. Hirao, R. A. Kendall, J. A. Nichols, K. Tsemekhman,
    K. Wolinski, J. Anchell, D. E. Bernholdt, P. Borowski, T. Clark, D. Clerc,
   H. Dachsel, M. J. O. Deegan, K. Dyall, D. Elwood, E. Glendening, M. Gutowski,
   A. C. Hess, J. Jaffe, B. G. Johnson, J. Ju, R. Kobayashi, R. Kutteh, Z. Lin,
   R. Littlefield, X. Long, B. Meng, T. Nakajima, S. Niu, L. Pollack, M. Rosing,
   K. Glaesemann, G. Sandrone, M. Stave, H. Taylor, G. Thomas, J. H. van Lenthe,
                               A. T. Wong, Z. Zhang.

 Total times  cpu:       11.9s     wall:       18.5s
