 argument  1 = input-wf.nw



============================== echo of input deck ==============================
echo
start wfn1_dat
geometry units au noautoz
  H 0 0 -4.84434600000000000000
  H 0 0  4.84434600000000000000
  symmetry cs
end
basis
  H library 6-31g
end
set wfn1:input_vectors "atomic"
set wfn1:solver "monte-carlo"
set wfn1:print_error F
set wfn1:t_initial 0.1
#set wfn1:corr_expr "wfn1_mx"
set wfn1:corr_expr "wfn1c"
set wfn1:t_bath 0.0
set wfn1:maxit  20000
task wfn1 energy
================================================================================


                                         
                                         


              Northwest Computational Chemistry Package (NWChem) 6.8
              ------------------------------------------------------


                    Environmental Molecular Sciences Laboratory
                       Pacific Northwest National Laboratory
                                Richland, WA 99352

                              Copyright (c) 1994-2015
                       Pacific Northwest National Laboratory
                            Battelle Memorial Institute

             NWChem is an open-source computational chemistry package
                        distributed under the terms of the
                      Educational Community License (ECL) 2.0
             A copy of the license is included with this distribution
                              in the LICENSE.TXT file

                                  ACKNOWLEDGMENT
                                  --------------

            This software and its documentation were developed at the
            EMSL at Pacific Northwest National Laboratory, a multiprogram
            national laboratory, operated for the U.S. Department of Energy
            by Battelle under Contract Number DE-AC05-76RL01830. Support
            for this work was provided by the Department of Energy Office
            of Biological and Environmental Research, Office of Basic
            Energy Sciences, and the Office of Advanced Scientific Computing.


           Job information
           ---------------

    hostname        = erato
    program         = ../../../bin/LINUX64/nwchem
    date            = Mon Mar  1 01:53:03 2021

    compiled        = Sun_Feb_28_18:02:42_2021
    source          = /home/hvandam/nwchem-1-wfn1
    nwchem branch   = Development
    nwchem revision = nwchem_on_git-124-gad72d19fff205e319ffbbf2bca37a04ded6ad57b
    ga revision     = nwchem_on_git-124-gad72d19
    use scalapack   = F
    input           = input-wf.nw
    prefix          = wfn1_dat.
    data base       = ./wfn1_dat.db
    status          = startup
    nproc           =        1
    time left       =     -1s



           Memory information
           ------------------

    heap     =   13107200 doubles =    100.0 Mbytes
    stack    =   13107197 doubles =    100.0 Mbytes
    global   =   26214400 doubles =    200.0 Mbytes (distinct from heap & stack)
    total    =   52428797 doubles =    400.0 Mbytes
    verify   = yes
    hardfail = no 


           Directory information
           ---------------------

  0 permanent = .
  0 scratch   = .




                                NWChem Input Module
                                -------------------


 Turning off AUTOSYM since
 SYMMETRY directive was detected!



                             Geometry "geometry" -> ""
                             -------------------------

 Output coordinates in a.u. (scale by  1.000000000 to convert to a.u.)

  No.       Tag          Charge          X              Y              Z
 ---- ---------------- ---------- -------------- -------------- --------------
    1 H                    1.0000     0.00000000     0.00000000    -4.84434600
    2 H                    1.0000     0.00000000     0.00000000     4.84434600

      Atomic Mass 
      ----------- 

      H                  1.007825


 Effective nuclear repulsion energy (a.u.)       0.1032131066

            Nuclear Dipole moment (a.u.) 
            ----------------------------
        X                 Y               Z
 ---------------- ---------------- ----------------
     0.0000000000     0.0000000000     0.0000000000

      Symmetry information
      --------------------

 Group name             Cs        
 Group number              2
 Group order               2
 No. of unique centers     1

      Symmetry unique atoms

     1


            XYZ format geometry
            -------------------
     2
 geometry
 H                     0.00000000     0.00000000    -2.56351769
 H                     0.00000000     0.00000000     2.56351769

                      Basis "ao basis" -> "" (cartesian)
                      -----
  H (Hydrogen)
  ------------
            Exponent  Coefficients 
       -------------- ---------------------------------------------------------
  1 S  1.87311370E+01  0.033495
  1 S  2.82539370E+00  0.234727
  1 S  6.40121700E-01  0.813757

  2 S  1.61277800E-01  1.000000



 Summary of "ao basis" -> "" (cartesian)
 ------------------------------------------------------------------------------
       Tag                 Description            Shells   Functions and Types
 ---------------- ------------------------------  ------  ---------------------
 H                           6-31g                   2        2   2s



                                NWChem WFN1 Module
                                ------------------



          No. of electrons :     2
           Alpha electrons :     1
            Beta electrons :     1
          Charge           :     0
          Spin multiplicity:     1

 HvD: wfn1_inpdft
 HvD: nquad_task =                     1
 HvD: iangquad   =                     0
 HvD: gridtype   = user      
 HvD: leb        =  T
 HvD: radgrid    = murakn    
 HvD: trunc_neigh=  T
 HvD: lssw       =  T
 HvD: whichssw   = erf1    
 HvD: mxnrad     =                     0
 HvD: mxnang     =                     0
 HVD: wfn1: movecs_in  = atomic                                                                                                                                                                                                                                                          
 HVD: wfn1: movecs_out = ./wfn1_dat.movecs                                                                                                                                                                                                                                               

      Superposition of Atomic Density Guess
      -------------------------------------

 Sum of atomic energies:          -0.99646508

      Non-variational initial energy
      ------------------------------

 Total energy =      -0.682110
 1-e energy   =      -1.202892
 2-e energy   =       0.417569
 HOMO         =      -0.191475
 LUMO         =      -0.190897

 iteration              energy           error
 ---------              ------           -----
         0         -0.86880504        0.080000
         1         -0.87576118        0.080000
         2         -0.87583997        0.080000
         3         -0.87718044        0.080000
         4         -0.87806705        0.080000
         5         -0.88358026        0.080000
         6         -0.88362532        0.080000
         7         -0.88815636        0.080000
         8         -0.89078383        0.080000
         9         -0.89258651        0.080000
        10         -0.89849292        0.080000
        11         -0.90250319        0.080000
        12         -0.90447423        0.080000
        13         -0.90680098        0.080000
        14         -0.90981411        0.080000
        15         -0.91184288        0.080000
        16         -0.91498294        0.080000
        17         -0.91593605        0.080000
        18         -0.91699889        0.080000
        19         -0.91903548        0.080000
        20         -0.92050281        0.080000
        21         -0.92284900        0.080000
        22         -0.92297522        0.080000
        23         -0.92377086        0.080000
        24         -0.92555271        0.080000
        25         -0.92579349        0.080000
        26         -0.92796360        0.080000
        27         -0.92834790        0.080000
        28         -0.92871021        0.080000
        29         -0.92889781        0.080000
        30         -0.92991640        0.080000
        31         -0.93095498        0.080000
        32         -0.93133675        0.080000
        33         -0.93190450        0.080000
        34         -0.93192829        0.080000
        35         -0.93196506        0.080000
        36         -0.93213871        0.080000
        37         -0.93217886        0.080000
        38         -0.93241453        0.080000
        39         -0.93254132        0.080000
        40         -0.93278179        0.080000
        41         -0.93283725        0.080000
        42         -0.93302574        0.080000
        43         -0.93322269        0.080000
        44         -0.93327338        0.063496
        45         -0.93327419        0.040000
        46         -0.93328620        0.031748
        47         -0.93329391        0.031748
        48         -0.93329497        0.031748
        49         -0.93329908        0.031748
        50         -0.93330017        0.025198
        51         -0.93330271        0.025198
        52         -0.93330933        0.025198
        53         -0.93330937        0.025198
        54         -0.93331700        0.025198
        55         -0.93331736        0.025198
        56         -0.93331865        0.020000
        57         -0.93331956        0.015874
        58         -0.93332133        0.015874
        59         -0.93332151        0.015874
        60         -0.93332417        0.015874
        61         -0.93333375        0.015874
        62         -0.93333501        0.012599
        63         -0.93333525        0.012599
        64         -0.93333620        0.012599
        65         -0.93333677        0.012599
        66         -0.93333778        0.012599
        67         -0.93334041        0.012599
        68         -0.93334047        0.010000
        69         -0.93334095        0.010000
        70         -0.93334213        0.010000
        71         -0.93334405        0.010000
        72         -0.93334409        0.010000
        73         -0.93334452        0.010000
        74         -0.93334559        0.010000
        75         -0.93334634        0.010000
        76         -0.93334635        0.007937
        77         -0.93334675        0.007937
        78         -0.93334733        0.005000
        79         -0.93334760        0.005000
        80         -0.93334773        0.005000
        81         -0.93334790        0.003969
        82         -0.93334816        0.003969
        83         -0.93334826        0.003969
        84         -0.93334834        0.003969
        85         -0.93334835        0.003969
        86         -0.93334838        0.003969
        87         -0.93334847        0.002500
        88         -0.93334847        0.002500
        89         -0.93334850        0.002500
        90         -0.93334857        0.002500
        91         -0.93334862        0.002500
        92         -0.93334869        0.002500
        93         -0.93334871        0.001984
        94         -0.93334875        0.001984
        95         -0.93334877        0.001250
        96         -0.93334879        0.001250
        97         -0.93334880        0.000992
        98         -0.93334881        0.000992
        99         -0.93334881        0.000992
       100         -0.93334881        0.000787
       101         -0.93334881        0.000787
       102         -0.93334882        0.000625
       103         -0.93334882        0.000625
       104         -0.93334882        0.000625
       105         -0.93334882        0.000496
       106         -0.93334882        0.000496
       107         -0.93334882        0.000496
       108         -0.93334882        0.000496
       109         -0.93334883        0.000496
       110         -0.93334883        0.000496
       111         -0.93334883        0.000394
       112         -0.93334883        0.000394
       113         -0.93334883        0.000313
       114         -0.93334883        0.000197
       115         -0.93334883        0.000197
       116         -0.93334883        0.000197
       117         -0.93334883        0.000197
       118         -0.93334883        0.000197
       119         -0.93334883        0.000156
       120         -0.93334883        0.000156
       121         -0.93334883        0.000156
       122         -0.93334883        0.000156
       123         -0.93334883        0.000156
       124         -0.93334883        0.000124
       125         -0.93334883        0.000124
       126         -0.93334883        0.000078
       127         -0.93334883        0.000062
       128         -0.93334883        0.000049
       129         -0.93334883        0.000049
       130         -0.93334883        0.000049
       131         -0.93334883        0.000049
       132         -0.93334883        0.000049
       133         -0.93334883        0.000039
       134         -0.93334883        0.000039
       135         -0.93334883        0.000039
       136         -0.93334883        0.000039
       137         -0.93334883        0.000031
       138         -0.93334883        0.000031
       139         -0.93334883        0.000031
       140         -0.93334883        0.000031
       141         -0.93334883        0.000031
       142         -0.93334883        0.000031
       143         -0.93334883        0.000031
       144         -0.93334883        0.000020
       145         -0.93334883        0.000020
       146         -0.93334883        0.000020
       147         -0.93334883        0.000020
       148         -0.93334883        0.000020
       149         -0.93334883        0.000012
       150         -0.93334883        0.000012
       151         -0.93334883        0.000012
       152         -0.93334883        0.000012
       153         -0.93334883        0.000012
       154         -0.93334883        0.000012
       155         -0.93334883        0.000012
       156         -0.93334883        0.000012
       157         -0.93334883        0.000010
       158         -0.93334883        0.000010
       159         -0.93334883        0.000010
       160         -0.93334883        0.000008
       161         -0.93334883        0.000008
       162         -0.93334883        0.000008
       163         -0.93334883        0.000008
       164         -0.93334883        0.000008
       165         -0.93334883        0.000008
       166         -0.93334883        0.000008
       167         -0.93334883        0.000008
       168         -0.93334883        0.000008
       169         -0.93334883        0.000004
       170         -0.93334883        0.000004
       171         -0.93334883        0.000004
       172         -0.93334883        0.000004
       173         -0.93334883        0.000004
       174         -0.93334883        0.000004
       175         -0.93334883        0.000004
       176         -0.93334883        0.000004
       177         -0.93334883        0.000004
       178         -0.93334883        0.000004
       179         -0.93334883        0.000004
       180         -0.93334883        0.000004
       181         -0.93334883        0.000004
       182         -0.93334883        0.000003
       183         -0.93334883        0.000003
       184         -0.93334883        0.000002
       185         -0.93334883        0.000002
       186         -0.93334883        0.000002
       187         -0.93334883        0.000002
       188         -0.93334883        0.000002
       189         -0.93334883        0.000001
       190         -0.93334883        0.000001

 Reached Convergence

 WFN1                     :
 --------------------------
 Total WFN1 energy  =          -0.9333488327
 1-Electron energy  =          -1.1360994135
 2-Electron energy  =           0.3472663665
 Correlation energy =          -0.2477288923
 DFT XC energy      =           0.0000000000
 Entropy energy     =           0.0000000000
 Nuclear energy     =           0.1032131066

 conventional Hartree-Fock:
 --------------------------
 Total SCF energy  =          -0.8676069063
 2-Electron energy =           0.4130082929

                WFN1 Final Natural orbital energies and occupations
                ---------------------------------------------------

              Alpha       Beta            Alpha       Beta  
            --------    --------        --------    --------
       1      0.0000      0.0000          0.4853      0.4853
       2      0.0000      0.0000          0.4826      0.4826
       3      0.0000      0.0000          0.0161      0.0161
       4      0.0000      0.0000          0.0160      0.0160

             WFN1 Final Correlation function energies and occupations
             --------------------------------------------------------

              Alpha       Beta            Alpha       Beta  
            --------    --------        --------    --------
       1      0.0000      0.0000          1.0000      1.0000
       2      0.0000      0.0000          0.0000      0.0000
       3      0.0000      0.0000          0.0000      0.0000
       4      0.0000      0.0000          0.0000      0.0000

                WFN1 Final alpha-alpha 2-matrix occupation numbers
                --------------------------------------------------


 global array: g_momo1[1:4,1:4],  handle: -990 

            1           2           3           4  
       ----------- ----------- ----------- -----------
   1       0.00000     0.00000     0.00000    -0.00000
   2       0.00000    -0.00000     0.00000     0.00000
   3       0.00000     0.00000     0.00000     0.00000
   4       0.00000     0.00000     0.00000     0.00000

                 WFN1 Final beta-beta 2-matrix occupation numbers
                 ------------------------------------------------


 global array: g_momo2[1:4,1:4],  handle: -989 

            1           2           3           4  
       ----------- ----------- ----------- -----------
   1       0.00000     0.00000     0.00000    -0.00000
   2       0.00000    -0.00000     0.00000     0.00000
   3       0.00000     0.00000     0.00000     0.00000
   4       0.00000     0.00000     0.00000     0.00000

                  WFN1 Final alpha Correlation Function Analysis
                  ----------------------------------------------


 global array: Ca[1:4,1:4],  handle: -981 

                     1                       2                       3                       4  
       ----------------------- ----------------------- ----------------------- -----------------------
   1       0.15997,    0.67805     0.16811,    0.68134     0.13639,   -0.02857    -0.01805,    0.04941
   2       0.09200,   -0.68856    -0.09984,    0.70193    -0.06906,   -0.08821     0.00663,   -0.04632
   3      -0.03291,   -0.12244     0.03962,    0.00561     0.59814,    0.32134     0.63602,    0.34172
   4       0.04467,    0.11836    -0.01751,    0.05420    -0.65983,    0.26763     0.64299,   -0.24560

                   WFN1 Final beta Correlation Function Analysis
                   ---------------------------------------------


 global array: Cb[1:4,1:4],  handle: -980 

                     1                       2                       3                       4  
       ----------------------- ----------------------- ----------------------- -----------------------
   1       0.15997,    0.67805     0.16811,    0.68134     0.13639,   -0.02857    -0.01805,    0.04941
   2       0.09200,   -0.68856    -0.09984,    0.70193    -0.06906,   -0.08821     0.00663,   -0.04632
   3      -0.03291,   -0.12244     0.03962,    0.00561     0.59814,    0.32134     0.63602,    0.34172
   4       0.04467,    0.11836    -0.01751,    0.05420    -0.65983,    0.26763     0.64299,   -0.24560

                     WFN1 Final Alpha Natural Orbital Analysis
                     -----------------------------------------

 Vector    1  Occ=4.853380D-01  E= 0.000000D+00
              MO Center=  0.0D+00,  0.0D+00,  2.3D-07, r^2= 7.5D+00
   Bfn.  Coefficient  Atom+Function         Bfn.  Coefficient  Atom+Function  
  ----- ------------  ---------------      ----- ------------  ---------------
     2     -0.514145  1 H  s                  4     -0.514145  2 H  s          
     1     -0.253211  1 H  s                  3     -0.253211  2 H  s          

 Vector    2  Occ=4.825831D-01  E= 0.000000D+00
              MO Center=  0.0D+00,  0.0D+00, -2.3D-07, r^2= 7.5D+00
   Bfn.  Coefficient  Atom+Function         Bfn.  Coefficient  Atom+Function  
  ----- ------------  ---------------      ----- ------------  ---------------
     2      0.513541  1 H  s                  4     -0.513541  2 H  s          
     1      0.254137  1 H  s                  3     -0.254137  2 H  s          

 Vector    3  Occ=1.607552D-02  E= 0.000000D+00
              MO Center=  0.0D+00,  0.0D+00, -2.6D-07, r^2= 7.7D+00
   Bfn.  Coefficient  Atom+Function         Bfn.  Coefficient  Atom+Function  
  ----- ------------  ---------------      ----- ------------  ---------------
     1     -0.904389  1 H  s                  3     -0.904389  2 H  s          
     2      0.785644  1 H  s                  4      0.785643  2 H  s          

 Vector    4  Occ=1.600336D-02  E= 0.000000D+00
              MO Center=  0.0D+00,  0.0D+00,  2.6D-07, r^2= 7.7D+00
   Bfn.  Coefficient  Atom+Function         Bfn.  Coefficient  Atom+Function  
  ----- ------------  ---------------      ----- ------------  ---------------
     1     -0.904507  1 H  s                  3      0.904507  2 H  s          
     2      0.787051  1 H  s                  4     -0.787051  2 H  s          


                     WFN1 Final Beta Natural Orbital Analysis
                     ----------------------------------------

 Vector    1  Occ=4.853380D-01  E= 0.000000D+00
              MO Center=  0.0D+00,  0.0D+00,  2.3D-07, r^2= 7.5D+00
   Bfn.  Coefficient  Atom+Function         Bfn.  Coefficient  Atom+Function  
  ----- ------------  ---------------      ----- ------------  ---------------
     2     -0.514145  1 H  s                  4     -0.514145  2 H  s          
     1     -0.253211  1 H  s                  3     -0.253211  2 H  s          

 Vector    2  Occ=4.825831D-01  E= 0.000000D+00
              MO Center=  0.0D+00,  0.0D+00, -2.3D-07, r^2= 7.5D+00
   Bfn.  Coefficient  Atom+Function         Bfn.  Coefficient  Atom+Function  
  ----- ------------  ---------------      ----- ------------  ---------------
     2      0.513541  1 H  s                  4     -0.513541  2 H  s          
     1      0.254137  1 H  s                  3     -0.254137  2 H  s          

 Vector    3  Occ=1.607552D-02  E= 0.000000D+00
              MO Center=  0.0D+00,  0.0D+00, -2.6D-07, r^2= 7.7D+00
   Bfn.  Coefficient  Atom+Function         Bfn.  Coefficient  Atom+Function  
  ----- ------------  ---------------      ----- ------------  ---------------
     1     -0.904389  1 H  s                  3     -0.904389  2 H  s          
     2      0.785644  1 H  s                  4      0.785643  2 H  s          

 Vector    4  Occ=1.600336D-02  E= 0.000000D+00
              MO Center=  0.0D+00,  0.0D+00,  2.6D-07, r^2= 7.7D+00
   Bfn.  Coefficient  Atom+Function         Bfn.  Coefficient  Atom+Function  
  ----- ------------  ---------------      ----- ------------  ---------------
     1     -0.904507  1 H  s                  3      0.904507  2 H  s          
     2      0.787051  1 H  s                  4     -0.787051  2 H  s          


 Task  times  cpu:        8.0s     wall:       10.9s
 Summary of allocated global arrays
-----------------------------------
  No active global arrays



                         GA Statistics for process    0
                         ------------------------------

       create   destroy   get      put      acc     scatter   gather  read&inc
calls:   44       44     6.30e+06 1.33e+04 1.73e+04    0        0       11     
number of processes/call 1.00e+00 1.00e+00 1.00e+00 0.00e+00 0.00e+00
bytes total:             8.10e+08 2.21e+06 2.76e+06 0.00e+00 0.00e+00 8.80e+01
bytes remote:            0.00e+00 0.00e+00 0.00e+00 0.00e+00 0.00e+00 0.00e+00
Max memory consumed for GA by this process: 10624 bytes
MA_summarize_allocated_blocks: starting scan ...
MA_summarize_allocated_blocks: scan completed: 0 heap blocks, 0 stack blocks
MA usage statistics:

	allocation statistics:
					      heap	     stack
					      ----	     -----
	current number of blocks	         0	         0
	maximum number of blocks	        19	        17
	current total bytes		         0	         0
	maximum total bytes		   3204328	  22508616
	maximum total K-bytes		      3205	     22509
	maximum total M-bytes		         4	        23


                                NWChem Input Module
                                -------------------





                                     CITATION
                                     --------
                Please cite the following reference when publishing
                           results obtained with NWChem:

                 M. Valiev, E.J. Bylaska, N. Govind, K. Kowalski,
              T.P. Straatsma, H.J.J. van Dam, D. Wang, J. Nieplocha,
                        E. Apra, T.L. Windus, W.A. de Jong
                 "NWChem: a comprehensive and scalable open-source
                  solution for large scale molecular simulations"
                      Comput. Phys. Commun. 181, 1477 (2010)
                           doi:10.1016/j.cpc.2010.04.018

                                      AUTHORS
                                      -------
          E. Apra, E. J. Bylaska, W. A. de Jong, N. Govind, K. Kowalski,
       T. P. Straatsma, M. Valiev, H. J. J. van Dam, D. Wang, T. L. Windus,
        J. Hammond, J. Autschbach, K. Bhaskaran-Nair, J. Brabec, K. Lopata,
    S. A. Fischer, S. Krishnamoorthy, M. Jacquelin, W. Ma, M. Klemm, O. Villa,
      Y. Chen, V. Anisimov, F. Aquino, S. Hirata, M. T. Hackler, V. Konjkov,
      T. Risthaus, M. Malagoli, A. Marenich, A. Otero-de-la-Roza, J. Mullin,
        P. Nichols, R. Peverati, J. Pittner, Y. Zhao, P.-D. Fan, A. Fonari,
       M. Williamson, R. J. Harrison, J. R. Rehr, M. Dupuis, D. Silverstein,
    D. M. A. Smith, J. Nieplocha, V. Tipparaju, M. Krishnan, B. E. Van Kuiken,
        A. Vazquez-Mayagoitia, L. Jensen, M. Swart, Q. Wu, T. Van Voorhis,
     A. A. Auer, M. Nooijen, L. D. Crosby, E. Brown, G. Cisneros, G. I. Fann,
   H. Fruchtl, J. Garza, K. Hirao, R. A. Kendall, J. A. Nichols, K. Tsemekhman,
    K. Wolinski, J. Anchell, D. E. Bernholdt, P. Borowski, T. Clark, D. Clerc,
   H. Dachsel, M. J. O. Deegan, K. Dyall, D. Elwood, E. Glendening, M. Gutowski,
   A. C. Hess, J. Jaffe, B. G. Johnson, J. Ju, R. Kobayashi, R. Kutteh, Z. Lin,
   R. Littlefield, X. Long, B. Meng, T. Nakajima, S. Niu, L. Pollack, M. Rosing,
   K. Glaesemann, G. Sandrone, M. Stave, H. Taylor, G. Thomas, J. H. van Lenthe,
                               A. T. Wong, Z. Zhang.

 Total times  cpu:        8.0s     wall:       10.9s
