 argument  1 = input-wf.nw



============================== echo of input deck ==============================
echo
start wfn1_dat
geometry units au noautoz
  H 0 0 -4.04434600000000000000
  H 0 0  4.04434600000000000000
  symmetry cs
end
basis
  H library 6-31g
end
set wfn1:input_vectors "atomic"
set wfn1:solver "monte-carlo"
set wfn1:print_error F
set wfn1:t_initial 0.1
#set wfn1:corr_expr "wfn1_mx"
set wfn1:corr_expr "wfn1c"
set wfn1:t_bath 0.0
set wfn1:maxit  20000
task wfn1 energy
================================================================================


                                         
                                         


              Northwest Computational Chemistry Package (NWChem) 6.8
              ------------------------------------------------------


                    Environmental Molecular Sciences Laboratory
                       Pacific Northwest National Laboratory
                                Richland, WA 99352

                              Copyright (c) 1994-2015
                       Pacific Northwest National Laboratory
                            Battelle Memorial Institute

             NWChem is an open-source computational chemistry package
                        distributed under the terms of the
                      Educational Community License (ECL) 2.0
             A copy of the license is included with this distribution
                              in the LICENSE.TXT file

                                  ACKNOWLEDGMENT
                                  --------------

            This software and its documentation were developed at the
            EMSL at Pacific Northwest National Laboratory, a multiprogram
            national laboratory, operated for the U.S. Department of Energy
            by Battelle under Contract Number DE-AC05-76RL01830. Support
            for this work was provided by the Department of Energy Office
            of Biological and Environmental Research, Office of Basic
            Energy Sciences, and the Office of Advanced Scientific Computing.


           Job information
           ---------------

    hostname        = erato
    program         = ../../../bin/LINUX64/nwchem
    date            = Mon Mar  1 01:48:59 2021

    compiled        = Sun_Feb_28_18:02:42_2021
    source          = /home/hvandam/nwchem-1-wfn1
    nwchem branch   = Development
    nwchem revision = nwchem_on_git-124-gad72d19fff205e319ffbbf2bca37a04ded6ad57b
    ga revision     = nwchem_on_git-124-gad72d19
    use scalapack   = F
    input           = input-wf.nw
    prefix          = wfn1_dat.
    data base       = ./wfn1_dat.db
    status          = startup
    nproc           =        1
    time left       =     -1s



           Memory information
           ------------------

    heap     =   13107200 doubles =    100.0 Mbytes
    stack    =   13107197 doubles =    100.0 Mbytes
    global   =   26214400 doubles =    200.0 Mbytes (distinct from heap & stack)
    total    =   52428797 doubles =    400.0 Mbytes
    verify   = yes
    hardfail = no 


           Directory information
           ---------------------

  0 permanent = .
  0 scratch   = .




                                NWChem Input Module
                                -------------------


 Turning off AUTOSYM since
 SYMMETRY directive was detected!



                             Geometry "geometry" -> ""
                             -------------------------

 Output coordinates in a.u. (scale by  1.000000000 to convert to a.u.)

  No.       Tag          Charge          X              Y              Z
 ---- ---------------- ---------- -------------- -------------- --------------
    1 H                    1.0000     0.00000000     0.00000000    -4.04434600
    2 H                    1.0000     0.00000000     0.00000000     4.04434600

      Atomic Mass 
      ----------- 

      H                  1.007825


 Effective nuclear repulsion energy (a.u.)       0.1236293828

            Nuclear Dipole moment (a.u.) 
            ----------------------------
        X                 Y               Z
 ---------------- ---------------- ----------------
     0.0000000000     0.0000000000     0.0000000000

      Symmetry information
      --------------------

 Group name             Cs        
 Group number              2
 Group order               2
 No. of unique centers     1

      Symmetry unique atoms

     1


            XYZ format geometry
            -------------------
     2
 geometry
 H                     0.00000000     0.00000000    -2.14017589
 H                     0.00000000     0.00000000     2.14017589

                      Basis "ao basis" -> "" (cartesian)
                      -----
  H (Hydrogen)
  ------------
            Exponent  Coefficients 
       -------------- ---------------------------------------------------------
  1 S  1.87311370E+01  0.033495
  1 S  2.82539370E+00  0.234727
  1 S  6.40121700E-01  0.813757

  2 S  1.61277800E-01  1.000000



 Summary of "ao basis" -> "" (cartesian)
 ------------------------------------------------------------------------------
       Tag                 Description            Shells   Functions and Types
 ---------------- ------------------------------  ------  ---------------------
 H                           6-31g                   2        2   2s



                                NWChem WFN1 Module
                                ------------------



          No. of electrons :     2
           Alpha electrons :     1
            Beta electrons :     1
          Charge           :     0
          Spin multiplicity:     1

 HvD: wfn1_inpdft
 HvD: nquad_task =                     1
 HvD: iangquad   =                     0
 HvD: gridtype   = user      
 HvD: leb        =  T
 HvD: radgrid    = murakn    
 HvD: trunc_neigh=  T
 HvD: lssw       =  T
 HvD: whichssw   = erf1    
 HvD: mxnrad     =                     0
 HvD: mxnang     =                     0
 HVD: wfn1: movecs_in  = atomic                                                                                                                                                                                                                                                          
 HVD: wfn1: movecs_out = ./wfn1_dat.movecs                                                                                                                                                                                                                                               

      Superposition of Atomic Density Guess
      -------------------------------------

 Sum of atomic energies:          -0.99646508

      Non-variational initial energy
      ------------------------------

 Total energy =      -0.682111
 1-e energy   =      -1.243725
 2-e energy   =       0.437984
 HOMO         =      -0.193174
 LUMO         =      -0.189196

 iteration              energy           error
 ---------              ------           -----
         0         -0.87397476        0.080000
         1         -0.88108111        0.080000
         2         -0.88539211        0.080000
         3         -0.89102494        0.080000
         4         -0.89142896        0.080000
         5         -0.89817374        0.080000
         6         -0.89934334        0.080000
         7         -0.90093027        0.080000
         8         -0.90320101        0.080000
         9         -0.90386527        0.080000
        10         -0.90661286        0.080000
        11         -0.90730780        0.080000
        12         -0.91097227        0.080000
        13         -0.91311567        0.080000
        14         -0.91326615        0.080000
        15         -0.91426904        0.080000
        16         -0.91713907        0.080000
        17         -0.91868410        0.080000
        18         -0.91895911        0.080000
        19         -0.92357280        0.080000
        20         -0.92363608        0.080000
        21         -0.92623240        0.080000
        22         -0.92783897        0.080000
        23         -0.92885197        0.080000
        24         -0.93179283        0.080000
        25         -0.93206155        0.080000
        26         -0.93235668        0.080000
        27         -0.93382404        0.080000
        28         -0.93529369        0.080000
        29         -0.93617850        0.080000
        30         -0.93698556        0.080000
        31         -0.93721520        0.080000
        32         -0.93749750        0.080000
        33         -0.93752444        0.080000
        34         -0.93781306        0.080000
        35         -0.93828670        0.080000
        36         -0.93862047        0.080000
        37         -0.93871776        0.080000
        38         -0.93900806        0.080000
        39         -0.93901719        0.080000
        40         -0.93909075        0.080000
        41         -0.93909788        0.080000
        42         -0.93914435        0.080000
        43         -0.93948839        0.080000
        44         -0.93961556        0.080000
        45         -0.93962772        0.063496
        46         -0.93963431        0.031748
        47         -0.93965882        0.031748
        48         -0.93967013        0.031748
        49         -0.93967532        0.031748
        50         -0.93969540        0.031748
        51         -0.93970046        0.031748
        52         -0.93972940        0.031748
        53         -0.93974148        0.031748
        54         -0.93974323        0.025198
        55         -0.93974403        0.025198
        56         -0.93974690        0.020000
        57         -0.93974693        0.020000
        58         -0.93975064        0.020000
        59         -0.93975240        0.015874
        60         -0.93975351        0.015874
        61         -0.93975367        0.015874
        62         -0.93975375        0.015874
        63         -0.93975638        0.015874
        64         -0.93975660        0.015874
        65         -0.93976386        0.015874
        66         -0.93976712        0.015874
        67         -0.93976750        0.012599
        68         -0.93976895        0.012599
        69         -0.93977058        0.012599
        70         -0.93977120        0.012599
        71         -0.93977128        0.012599
        72         -0.93977152        0.006300
        73         -0.93977157        0.003969
        74         -0.93977182        0.003969
        75         -0.93977188        0.003969
        76         -0.93977190        0.003969
        77         -0.93977218        0.003969
        78         -0.93977245        0.003969
        79         -0.93977271        0.003969
        80         -0.93977275        0.003969
        81         -0.93977319        0.003969
        82         -0.93977369        0.003969
        83         -0.93977374        0.003969
        84         -0.93977402        0.003969
        85         -0.93977409        0.003969
        86         -0.93977410        0.003969
        87         -0.93977419        0.003969
        88         -0.93977427        0.003969
        89         -0.93977457        0.003969
        90         -0.93977490        0.003969
        91         -0.93977499        0.003969
        92         -0.93977508        0.003969
        93         -0.93977509        0.003969
        94         -0.93977519        0.003969
        95         -0.93977536        0.002500
        96         -0.93977546        0.002500
        97         -0.93977552        0.002500
        98         -0.93977554        0.002500
        99         -0.93977557        0.002500
       100         -0.93977563        0.001575
       101         -0.93977567        0.001575
       102         -0.93977572        0.001575
       103         -0.93977573        0.001250
       104         -0.93977574        0.001250
       105         -0.93977576        0.001250
       106         -0.93977577        0.001250
       107         -0.93977579        0.001250
       108         -0.93977581        0.001250
       109         -0.93977581        0.001250
       110         -0.93977582        0.001250
       111         -0.93977583        0.001250
       112         -0.93977588        0.001250
       113         -0.93977590        0.001250
       114         -0.93977590        0.000992
       115         -0.93977591        0.000992
       116         -0.93977591        0.000992
       117         -0.93977592        0.000992
       118         -0.93977592        0.000787
       119         -0.93977593        0.000787
       120         -0.93977593        0.000787
       121         -0.93977593        0.000787
       122         -0.93977593        0.000787
       123         -0.93977595        0.000787
       124         -0.93977595        0.000625
       125         -0.93977596        0.000625
       126         -0.93977596        0.000625
       127         -0.93977596        0.000625
       128         -0.93977596        0.000394
       129         -0.93977597        0.000313
       130         -0.93977597        0.000313
       131         -0.93977597        0.000313
       132         -0.93977597        0.000313
       133         -0.93977597        0.000313
       134         -0.93977597        0.000313
       135         -0.93977597        0.000248
       136         -0.93977597        0.000248
       137         -0.93977598        0.000248
       138         -0.93977598        0.000248
       139         -0.93977598        0.000197
       140         -0.93977598        0.000156
       141         -0.93977598        0.000156
       142         -0.93977598        0.000124
       143         -0.93977598        0.000124
       144         -0.93977598        0.000124
       145         -0.93977598        0.000124
       146         -0.93977598        0.000124
       147         -0.93977598        0.000098
       148         -0.93977598        0.000098
       149         -0.93977598        0.000098
       150         -0.93977598        0.000098
       151         -0.93977598        0.000098
       152         -0.93977598        0.000078
       153         -0.93977598        0.000078
       154         -0.93977598        0.000078
       155         -0.93977598        0.000078
       156         -0.93977598        0.000078
       157         -0.93977598        0.000062
       158         -0.93977598        0.000062
       159         -0.93977598        0.000062
       160         -0.93977598        0.000062
       161         -0.93977598        0.000062
       162         -0.93977598        0.000062
       163         -0.93977598        0.000062
       164         -0.93977598        0.000062
       165         -0.93977598        0.000062
       166         -0.93977598        0.000049
       167         -0.93977598        0.000049
       168         -0.93977598        0.000049
       169         -0.93977598        0.000049
       170         -0.93977598        0.000049
       171         -0.93977598        0.000049
       172         -0.93977598        0.000049
       173         -0.93977598        0.000049
       174         -0.93977598        0.000049
       175         -0.93977598        0.000049
       176         -0.93977598        0.000049
       177         -0.93977598        0.000049
       178         -0.93977598        0.000049
       179         -0.93977598        0.000049
       180         -0.93977598        0.000049
       181         -0.93977598        0.000049
       182         -0.93977598        0.000049
       183         -0.93977598        0.000049
       184         -0.93977598        0.000049
       185         -0.93977598        0.000049
       186         -0.93977598        0.000049
       187         -0.93977598        0.000039
       188         -0.93977598        0.000025
       189         -0.93977598        0.000025
       190         -0.93977598        0.000025
       191         -0.93977598        0.000020
       192         -0.93977598        0.000020
       193         -0.93977598        0.000020
       194         -0.93977598        0.000020
       195         -0.93977598        0.000020
       196         -0.93977598        0.000020
       197         -0.93977598        0.000020
       198         -0.93977598        0.000020
       199         -0.93977598        0.000020
       200         -0.93977598        0.000020
       201         -0.93977598        0.000020
       202         -0.93977598        0.000012
       203         -0.93977598        0.000012
       204         -0.93977598        0.000012
       205         -0.93977598        0.000012
       206         -0.93977598        0.000012
       207         -0.93977598        0.000012
       208         -0.93977598        0.000012
       209         -0.93977598        0.000012
       210         -0.93977598        0.000012
       211         -0.93977598        0.000012
       212         -0.93977598        0.000012
       213         -0.93977598        0.000010
       214         -0.93977598        0.000010
       215         -0.93977598        0.000008
       216         -0.93977598        0.000008
       217         -0.93977598        0.000008
       218         -0.93977598        0.000008
       219         -0.93977598        0.000008
       220         -0.93977598        0.000008
       221         -0.93977598        0.000008
       222         -0.93977598        0.000008
       223         -0.93977598        0.000008
       224         -0.93977598        0.000006
       225         -0.93977598        0.000005
       226         -0.93977598        0.000004
       227         -0.93977598        0.000004
       228         -0.93977598        0.000004
       229         -0.93977598        0.000003
       230         -0.93977598        0.000003
       231         -0.93977598        0.000003
       232         -0.93977598        0.000003
       233         -0.93977598        0.000002
       234         -0.93977598        0.000002
       235         -0.93977598        0.000002
       236         -0.93977598        0.000002
       237         -0.93977598        0.000002
       238         -0.93977598        0.000002
       239         -0.93977598        0.000001
       240         -0.93977598        0.000001

 Reached Convergence

 WFN1                     :
 --------------------------
 Total WFN1 energy  =          -0.9397759820
 1-Electron energy  =          -1.1757922350
 2-Electron energy  =           0.3574369130
 Correlation energy =          -0.2450500428
 DFT XC energy      =           0.0000000000
 Entropy energy     =           0.0000000000
 Nuclear energy     =           0.1236293828

 conventional Hartree-Fock:
 --------------------------
 Total SCF energy  =          -0.8635821977
 2-Electron energy =           0.4336306973

                WFN1 Final Natural orbital energies and occupations
                ---------------------------------------------------

              Alpha       Beta            Alpha       Beta  
            --------    --------        --------    --------
       1      0.0000      0.0000          0.4929      0.4929
       2      0.0000      0.0000          0.4744      0.4744
       3      0.0000      0.0000          0.0166      0.0166
       4      0.0000      0.0000          0.0161      0.0161

             WFN1 Final Correlation function energies and occupations
             --------------------------------------------------------

              Alpha       Beta            Alpha       Beta  
            --------    --------        --------    --------
       1      0.0000      0.0000          1.0000      1.0000
       2      0.0000      0.0000          0.0000      0.0000
       3      0.0000      0.0000          0.0000      0.0000
       4      0.0000      0.0000          0.0000      0.0000

                WFN1 Final alpha-alpha 2-matrix occupation numbers
                --------------------------------------------------


 global array: g_momo1[1:4,1:4],  handle: -990 

            1           2           3           4  
       ----------- ----------- ----------- -----------
   1       0.00000    -0.00000    -0.00000     0.00000
   2       0.00000     0.00000     0.00000     0.00000
   3       0.00000     0.00000    -0.00000     0.00000
   4       0.00000     0.00000     0.00000     0.00000

                 WFN1 Final beta-beta 2-matrix occupation numbers
                 ------------------------------------------------


 global array: g_momo2[1:4,1:4],  handle: -989 

            1           2           3           4  
       ----------- ----------- ----------- -----------
   1       0.00000    -0.00000    -0.00000     0.00000
   2       0.00000     0.00000     0.00000     0.00000
   3       0.00000     0.00000    -0.00000     0.00000
   4       0.00000     0.00000     0.00000     0.00000

                  WFN1 Final alpha Correlation Function Analysis
                  ----------------------------------------------


 global array: Ca[1:4,1:4],  handle: -981 

                     1                       2                       3                       4  
       ----------------------- ----------------------- ----------------------- -----------------------
   1      -0.35728,    0.60437    -0.35952,    0.60570     0.01993,   -0.08280    -0.05890,   -0.01552
   2      -0.46662,    0.50663     0.48354,   -0.51773     0.05881,   -0.08010    -0.09651,   -0.06747
   3       0.12827,    0.01269    -0.02345,   -0.00779     0.45207,   -0.53552     0.46038,   -0.52884
   4       0.05700,    0.11327    -0.03502,   -0.01313    -0.08510,    0.69605     0.07169,   -0.69689

                   WFN1 Final beta Correlation Function Analysis
                   ---------------------------------------------


 global array: Cb[1:4,1:4],  handle: -980 

                     1                       2                       3                       4  
       ----------------------- ----------------------- ----------------------- -----------------------
   1      -0.35728,    0.60437    -0.35952,    0.60570     0.01993,   -0.08280    -0.05890,   -0.01552
   2      -0.46662,    0.50663     0.48354,   -0.51773     0.05881,   -0.08010    -0.09651,   -0.06747
   3       0.12827,    0.01269    -0.02345,   -0.00779     0.45207,   -0.53552     0.46038,   -0.52884
   4       0.05700,    0.11327    -0.03502,   -0.01313    -0.08510,    0.69605     0.07169,   -0.69689

                     WFN1 Final Alpha Natural Orbital Analysis
                     -----------------------------------------

 Vector    1  Occ=4.929037D-01  E= 0.000000D+00
              MO Center=  0.0D+00,  0.0D+00, -1.1D-07, r^2= 5.5D+00
   Bfn.  Coefficient  Atom+Function         Bfn.  Coefficient  Atom+Function  
  ----- ------------  ---------------      ----- ------------  ---------------
     2     -0.515431  1 H  s                  4     -0.515431  2 H  s          
     1     -0.250667  1 H  s                  3     -0.250667  2 H  s          

 Vector    2  Occ=4.744030D-01  E= 0.000000D+00
              MO Center=  0.0D+00,  0.0D+00,  1.2D-07, r^2= 5.5D+00
   Bfn.  Coefficient  Atom+Function         Bfn.  Coefficient  Atom+Function  
  ----- ------------  ---------------      ----- ------------  ---------------
     2      0.512334  1 H  s                  4     -0.512334  2 H  s          
     1      0.256568  1 H  s                  3     -0.256568  2 H  s          

 Vector    3  Occ=1.661344D-02  E= 0.000000D+00
              MO Center=  0.0D+00,  0.0D+00,  9.5D-07, r^2= 5.7D+00
   Bfn.  Coefficient  Atom+Function         Bfn.  Coefficient  Atom+Function  
  ----- ------------  ---------------      ----- ------------  ---------------
     1     -0.903542  1 H  s                  3     -0.903542  2 H  s          
     2      0.780436  1 H  s                  4      0.780436  2 H  s          

 Vector    4  Occ=1.607988D-02  E= 0.000000D+00
              MO Center=  0.0D+00,  0.0D+00, -9.5D-07, r^2= 5.7D+00
   Bfn.  Coefficient  Atom+Function         Bfn.  Coefficient  Atom+Function  
  ----- ------------  ---------------      ----- ------------  ---------------
     1     -0.905405  1 H  s                  3      0.905405  2 H  s          
     2      0.792245  1 H  s                  4     -0.792244  2 H  s          


                     WFN1 Final Beta Natural Orbital Analysis
                     ----------------------------------------

 Vector    1  Occ=4.929037D-01  E= 0.000000D+00
              MO Center=  0.0D+00,  0.0D+00, -1.1D-07, r^2= 5.5D+00
   Bfn.  Coefficient  Atom+Function         Bfn.  Coefficient  Atom+Function  
  ----- ------------  ---------------      ----- ------------  ---------------
     2     -0.515431  1 H  s                  4     -0.515431  2 H  s          
     1     -0.250667  1 H  s                  3     -0.250667  2 H  s          

 Vector    2  Occ=4.744030D-01  E= 0.000000D+00
              MO Center=  0.0D+00,  0.0D+00,  1.2D-07, r^2= 5.5D+00
   Bfn.  Coefficient  Atom+Function         Bfn.  Coefficient  Atom+Function  
  ----- ------------  ---------------      ----- ------------  ---------------
     2      0.512334  1 H  s                  4     -0.512334  2 H  s          
     1      0.256568  1 H  s                  3     -0.256568  2 H  s          

 Vector    3  Occ=1.661344D-02  E= 0.000000D+00
              MO Center=  0.0D+00,  0.0D+00,  9.5D-07, r^2= 5.7D+00
   Bfn.  Coefficient  Atom+Function         Bfn.  Coefficient  Atom+Function  
  ----- ------------  ---------------      ----- ------------  ---------------
     1     -0.903542  1 H  s                  3     -0.903542  2 H  s          
     2      0.780436  1 H  s                  4      0.780436  2 H  s          

 Vector    4  Occ=1.607988D-02  E= 0.000000D+00
              MO Center=  0.0D+00,  0.0D+00, -9.5D-07, r^2= 5.7D+00
   Bfn.  Coefficient  Atom+Function         Bfn.  Coefficient  Atom+Function  
  ----- ------------  ---------------      ----- ------------  ---------------
     1     -0.905405  1 H  s                  3      0.905405  2 H  s          
     2      0.792245  1 H  s                  4     -0.792244  2 H  s          


 Task  times  cpu:        9.8s     wall:       13.2s
 Summary of allocated global arrays
-----------------------------------
  No active global arrays



                         GA Statistics for process    0
                         ------------------------------

       create   destroy   get      put      acc     scatter   gather  read&inc
calls:   44       44     7.50e+06 1.58e+04 2.06e+04    0        0       11     
number of processes/call 1.00e+00 1.00e+00 1.00e+00 0.00e+00 0.00e+00
bytes total:             9.64e+08 2.63e+06 3.28e+06 0.00e+00 0.00e+00 8.80e+01
bytes remote:            0.00e+00 0.00e+00 0.00e+00 0.00e+00 0.00e+00 0.00e+00
Max memory consumed for GA by this process: 10624 bytes
MA_summarize_allocated_blocks: starting scan ...
MA_summarize_allocated_blocks: scan completed: 0 heap blocks, 0 stack blocks
MA usage statistics:

	allocation statistics:
					      heap	     stack
					      ----	     -----
	current number of blocks	         0	         0
	maximum number of blocks	        19	        17
	current total bytes		         0	         0
	maximum total bytes		   3204328	  22508616
	maximum total K-bytes		      3205	     22509
	maximum total M-bytes		         4	        23


                                NWChem Input Module
                                -------------------





                                     CITATION
                                     --------
                Please cite the following reference when publishing
                           results obtained with NWChem:

                 M. Valiev, E.J. Bylaska, N. Govind, K. Kowalski,
              T.P. Straatsma, H.J.J. van Dam, D. Wang, J. Nieplocha,
                        E. Apra, T.L. Windus, W.A. de Jong
                 "NWChem: a comprehensive and scalable open-source
                  solution for large scale molecular simulations"
                      Comput. Phys. Commun. 181, 1477 (2010)
                           doi:10.1016/j.cpc.2010.04.018

                                      AUTHORS
                                      -------
          E. Apra, E. J. Bylaska, W. A. de Jong, N. Govind, K. Kowalski,
       T. P. Straatsma, M. Valiev, H. J. J. van Dam, D. Wang, T. L. Windus,
        J. Hammond, J. Autschbach, K. Bhaskaran-Nair, J. Brabec, K. Lopata,
    S. A. Fischer, S. Krishnamoorthy, M. Jacquelin, W. Ma, M. Klemm, O. Villa,
      Y. Chen, V. Anisimov, F. Aquino, S. Hirata, M. T. Hackler, V. Konjkov,
      T. Risthaus, M. Malagoli, A. Marenich, A. Otero-de-la-Roza, J. Mullin,
        P. Nichols, R. Peverati, J. Pittner, Y. Zhao, P.-D. Fan, A. Fonari,
       M. Williamson, R. J. Harrison, J. R. Rehr, M. Dupuis, D. Silverstein,
    D. M. A. Smith, J. Nieplocha, V. Tipparaju, M. Krishnan, B. E. Van Kuiken,
        A. Vazquez-Mayagoitia, L. Jensen, M. Swart, Q. Wu, T. Van Voorhis,
     A. A. Auer, M. Nooijen, L. D. Crosby, E. Brown, G. Cisneros, G. I. Fann,
   H. Fruchtl, J. Garza, K. Hirao, R. A. Kendall, J. A. Nichols, K. Tsemekhman,
    K. Wolinski, J. Anchell, D. E. Bernholdt, P. Borowski, T. Clark, D. Clerc,
   H. Dachsel, M. J. O. Deegan, K. Dyall, D. Elwood, E. Glendening, M. Gutowski,
   A. C. Hess, J. Jaffe, B. G. Johnson, J. Ju, R. Kobayashi, R. Kutteh, Z. Lin,
   R. Littlefield, X. Long, B. Meng, T. Nakajima, S. Niu, L. Pollack, M. Rosing,
   K. Glaesemann, G. Sandrone, M. Stave, H. Taylor, G. Thomas, J. H. van Lenthe,
                               A. T. Wong, Z. Zhang.

 Total times  cpu:        9.8s     wall:       13.2s
