 argument  1 = input-wf.nw



============================== echo of input deck ==============================
echo
start wfn1_dat
geometry units au noautoz
  H 0 0 -5.49434600000000000000
  H 0 0  5.49434600000000000000
  symmetry cs
end
basis
  H library 6-31g
end
set wfn1:input_vectors "atomic"
set wfn1:solver "monte-carlo"
set wfn1:print_error F
set wfn1:t_initial 0.1
#set wfn1:corr_expr "wfn1_mx"
set wfn1:corr_expr "wfn1c"
set wfn1:t_bath 0.0
set wfn1:maxit  20000
task wfn1 energy
================================================================================


                                         
                                         


              Northwest Computational Chemistry Package (NWChem) 6.8
              ------------------------------------------------------


                    Environmental Molecular Sciences Laboratory
                       Pacific Northwest National Laboratory
                                Richland, WA 99352

                              Copyright (c) 1994-2015
                       Pacific Northwest National Laboratory
                            Battelle Memorial Institute

             NWChem is an open-source computational chemistry package
                        distributed under the terms of the
                      Educational Community License (ECL) 2.0
             A copy of the license is included with this distribution
                              in the LICENSE.TXT file

                                  ACKNOWLEDGMENT
                                  --------------

            This software and its documentation were developed at the
            EMSL at Pacific Northwest National Laboratory, a multiprogram
            national laboratory, operated for the U.S. Department of Energy
            by Battelle under Contract Number DE-AC05-76RL01830. Support
            for this work was provided by the Department of Energy Office
            of Biological and Environmental Research, Office of Basic
            Energy Sciences, and the Office of Advanced Scientific Computing.


           Job information
           ---------------

    hostname        = erato
    program         = ../../../bin/LINUX64/nwchem
    date            = Mon Mar  1 01:55:57 2021

    compiled        = Sun_Feb_28_18:02:42_2021
    source          = /home/hvandam/nwchem-1-wfn1
    nwchem branch   = Development
    nwchem revision = nwchem_on_git-124-gad72d19fff205e319ffbbf2bca37a04ded6ad57b
    ga revision     = nwchem_on_git-124-gad72d19
    use scalapack   = F
    input           = input-wf.nw
    prefix          = wfn1_dat.
    data base       = ./wfn1_dat.db
    status          = startup
    nproc           =        1
    time left       =     -1s



           Memory information
           ------------------

    heap     =   13107196 doubles =    100.0 Mbytes
    stack    =   13107201 doubles =    100.0 Mbytes
    global   =   26214400 doubles =    200.0 Mbytes (distinct from heap & stack)
    total    =   52428797 doubles =    400.0 Mbytes
    verify   = yes
    hardfail = no 


           Directory information
           ---------------------

  0 permanent = .
  0 scratch   = .




                                NWChem Input Module
                                -------------------


 Turning off AUTOSYM since
 SYMMETRY directive was detected!



                             Geometry "geometry" -> ""
                             -------------------------

 Output coordinates in a.u. (scale by  1.000000000 to convert to a.u.)

  No.       Tag          Charge          X              Y              Z
 ---- ---------------- ---------- -------------- -------------- --------------
    1 H                    1.0000     0.00000000     0.00000000    -5.49434600
    2 H                    1.0000     0.00000000     0.00000000     5.49434600

      Atomic Mass 
      ----------- 

      H                  1.007825


 Effective nuclear repulsion energy (a.u.)       0.0910026416

            Nuclear Dipole moment (a.u.) 
            ----------------------------
        X                 Y               Z
 ---------------- ---------------- ----------------
     0.0000000000     0.0000000000     0.0000000000

      Symmetry information
      --------------------

 Group name             Cs        
 Group number              2
 Group order               2
 No. of unique centers     1

      Symmetry unique atoms

     1


            XYZ format geometry
            -------------------
     2
 geometry
 H                     0.00000000     0.00000000    -2.90748290
 H                     0.00000000     0.00000000     2.90748290

                      Basis "ao basis" -> "" (cartesian)
                      -----
  H (Hydrogen)
  ------------
            Exponent  Coefficients 
       -------------- ---------------------------------------------------------
  1 S  1.87311370E+01  0.033495
  1 S  2.82539370E+00  0.234727
  1 S  6.40121700E-01  0.813757

  2 S  1.61277800E-01  1.000000



 Summary of "ao basis" -> "" (cartesian)
 ------------------------------------------------------------------------------
       Tag                 Description            Shells   Functions and Types
 ---------------- ------------------------------  ------  ---------------------
 H                           6-31g                   2        2   2s



                                NWChem WFN1 Module
                                ------------------



          No. of electrons :     2
           Alpha electrons :     1
            Beta electrons :     1
          Charge           :     0
          Spin multiplicity:     1

 HvD: wfn1_inpdft
 HvD: nquad_task =                     1
 HvD: iangquad   =                     0
 HvD: gridtype   = user      
 HvD: leb        =  T
 HvD: radgrid    = murakn    
 HvD: trunc_neigh=  T
 HvD: lssw       =  T
 HvD: whichssw   = erf1    
 HvD: mxnrad     =                     0
 HvD: mxnang     =                     0
 HVD: wfn1: movecs_in  = atomic                                                                                                                                                                                                                                                          
 HVD: wfn1: movecs_out = ./wfn1_dat.movecs                                                                                                                                                                                                                                               

      Superposition of Atomic Density Guess
      -------------------------------------

 Sum of atomic energies:          -0.99646508

      Non-variational initial energy
      ------------------------------

 Total energy =      -0.682110
 1-e energy   =      -1.178471
 2-e energy   =       0.405359
 HOMO         =      -0.191230
 LUMO         =      -0.191142

 iteration              energy           error
 ---------              ------           -----
         0         -0.86574019        0.080000
         1         -0.87022708        0.080000
         2         -0.87785647        0.080000
         3         -0.88409149        0.080000
         4         -0.88495404        0.080000
         5         -0.88514568        0.080000
         6         -0.88705879        0.080000
         7         -0.89226854        0.080000
         8         -0.89383409        0.080000
         9         -0.89846556        0.080000
        10         -0.89935259        0.080000
        11         -0.90023633        0.080000
        12         -0.90301259        0.080000
        13         -0.90334939        0.080000
        14         -0.90584556        0.080000
        15         -0.90649154        0.080000
        16         -0.91073649        0.080000
        17         -0.91279743        0.080000
        18         -0.91576415        0.080000
        19         -0.91686768        0.080000
        20         -0.91931094        0.080000
        21         -0.92036690        0.080000
        22         -0.92205869        0.080000
        23         -0.92236322        0.080000
        24         -0.92249752        0.080000
        25         -0.92475778        0.080000
        26         -0.92579013        0.080000
        27         -0.92636534        0.080000
        28         -0.92675447        0.080000
        29         -0.92723020        0.080000
        30         -0.92763138        0.080000
        31         -0.92783402        0.080000
        32         -0.92815612        0.080000
        33         -0.92824665        0.080000
        34         -0.92864255        0.080000
        35         -0.92887678        0.080000
        36         -0.92888793        0.080000
        37         -0.92919422        0.080000
        38         -0.92921666        0.080000
        39         -0.92934685        0.080000
        40         -0.92940459        0.063496
        41         -0.92942328        0.063496
        42         -0.92946632        0.063496
        43         -0.92949249        0.050397
        44         -0.92951396        0.040000
        45         -0.92951690        0.031748
        46         -0.92951970        0.015874
        47         -0.92952152        0.015874
        48         -0.92952321        0.015874
        49         -0.92952396        0.012599
        50         -0.92952408        0.012599
        51         -0.92952437        0.012599
        52         -0.92952482        0.007937
        53         -0.92952484        0.007937
        54         -0.92952506        0.007937
        55         -0.92952598        0.007937
        56         -0.92952623        0.007937
        57         -0.92952727        0.007937
        58         -0.92952744        0.006300
        59         -0.92952790        0.006300
        60         -0.92952797        0.005000
        61         -0.92952825        0.005000
        62         -0.92952835        0.005000
        63         -0.92952869        0.005000
        64         -0.92952886        0.005000
        65         -0.92952918        0.005000
        66         -0.92952938        0.005000
        67         -0.92952949        0.005000
        68         -0.92952952        0.003969
        69         -0.92952953        0.003969
        70         -0.92952958        0.002500
        71         -0.92952964        0.002500
        72         -0.92952969        0.001984
        73         -0.92952972        0.001984
        74         -0.92952972        0.001250
        75         -0.92952972        0.001250
        76         -0.92952972        0.000787
        77         -0.92952973        0.000625
        78         -0.92952974        0.000496
        79         -0.92952974        0.000496
        80         -0.92952974        0.000394
        81         -0.92952974        0.000394
        82         -0.92952974        0.000394
        83         -0.92952974        0.000313
        84         -0.92952975        0.000313
        85         -0.92952975        0.000156
        86         -0.92952975        0.000156
        87         -0.92952975        0.000156
        88         -0.92952975        0.000156
        89         -0.92952975        0.000156
        90         -0.92952975        0.000124
        91         -0.92952975        0.000124
        92         -0.92952975        0.000098
        93         -0.92952975        0.000078
        94         -0.92952975        0.000078
        95         -0.92952975        0.000049
        96         -0.92952975        0.000049
        97         -0.92952975        0.000039
        98         -0.92952975        0.000031
        99         -0.92952975        0.000020
       100         -0.92952975        0.000016
       101         -0.92952975        0.000016
       102         -0.92952975        0.000012
       103         -0.92952975        0.000012
       104         -0.92952975        0.000010
       105         -0.92952975        0.000010
       106         -0.92952975        0.000008
       107         -0.92952975        0.000005
       108         -0.92952975        0.000005
       109         -0.92952975        0.000005
       110         -0.92952975        0.000005
       111         -0.92952975        0.000005
       112         -0.92952975        0.000004
       113         -0.92952975        0.000003
       114         -0.92952975        0.000003
       115         -0.92952975        0.000003
       116         -0.92952975        0.000003
       117         -0.92952975        0.000002
       118         -0.92952975        0.000002
       119         -0.92952975        0.000002
       120         -0.92952975        0.000002
       121         -0.92952975        0.000002
       122         -0.92952975        0.000002
       123         -0.92952975        0.000001
       124         -0.92952975        0.000001
       125         -0.92952975        0.000001

 Reached Convergence

 WFN1                     :
 --------------------------
 Total WFN1 energy  =          -0.9295297470
 1-Electron energy  =          -1.1123892375
 2-Electron energy  =           0.3411700548
 Correlation energy =          -0.2493132059
 DFT XC energy      =           0.0000000000
 Entropy energy     =           0.0000000000
 Nuclear energy     =           0.0910026416

 conventional Hartree-Fock:
 --------------------------
 Total SCF energy  =          -0.8700497907
 2-Electron energy =           0.4006500112

                WFN1 Final Natural orbital energies and occupations
                ---------------------------------------------------

              Alpha       Beta            Alpha       Beta  
            --------    --------        --------    --------
       1      0.0000      0.0000          0.4844      0.4844
       2      0.0000      0.0000          0.4839      0.4839
       3      0.0000      0.0000          0.0159      0.0159
       4      0.0000      0.0000          0.0159      0.0159

             WFN1 Final Correlation function energies and occupations
             --------------------------------------------------------

              Alpha       Beta            Alpha       Beta  
            --------    --------        --------    --------
       1      0.0000      0.0000          1.0000      1.0000
       2      0.0000      0.0000          0.0000      0.0000
       3      0.0000      0.0000          0.0000      0.0000
       4      0.0000      0.0000          0.0000      0.0000

                WFN1 Final alpha-alpha 2-matrix occupation numbers
                --------------------------------------------------


 global array: g_momo1[1:4,1:4],  handle: -990 

            1           2           3           4  
       ----------- ----------- ----------- -----------
   1      -0.00000    -0.00000     0.00000     0.00000
   2      -0.00000    -0.00000     0.00000     0.00000
   3      -0.00000    -0.00000     0.00000     0.00000
   4       0.00000    -0.00000     0.00000     0.00000

                 WFN1 Final beta-beta 2-matrix occupation numbers
                 ------------------------------------------------


 global array: g_momo2[1:4,1:4],  handle: -989 

            1           2           3           4  
       ----------- ----------- ----------- -----------
   1      -0.00000    -0.00000     0.00000     0.00000
   2      -0.00000    -0.00000     0.00000     0.00000
   3      -0.00000    -0.00000     0.00000     0.00000
   4       0.00000    -0.00000     0.00000     0.00000

                  WFN1 Final alpha Correlation Function Analysis
                  ----------------------------------------------


 global array: Ca[1:4,1:4],  handle: -977 

                     1                       2                       3                       4  
       ----------------------- ----------------------- ----------------------- -----------------------
   1      -0.57654,    0.38982    -0.58680,    0.39211     0.10533,    0.05726    -0.03136,    0.04696
   2       0.53009,   -0.45049    -0.54050,    0.45413    -0.12063,   -0.04906    -0.01076,    0.02493
   3       0.09419,   -0.08360    -0.03011,   -0.02900     0.62895,    0.32805     0.61554,    0.31670
   4       0.01335,   -0.12519     0.04237,    0.00181     0.60109,   -0.32274    -0.63374,    0.33949

                   WFN1 Final beta Correlation Function Analysis
                   ---------------------------------------------


 global array: Cb[1:4,1:4],  handle: -976 

                     1                       2                       3                       4  
       ----------------------- ----------------------- ----------------------- -----------------------
   1      -0.57654,    0.38982    -0.58680,    0.39211     0.10533,    0.05726    -0.03136,    0.04696
   2       0.53009,   -0.45049    -0.54050,    0.45413    -0.12063,   -0.04906    -0.01076,    0.02493
   3       0.09419,   -0.08360    -0.03011,   -0.02900     0.62895,    0.32805     0.61554,    0.31670
   4       0.01335,   -0.12519     0.04237,    0.00181     0.60109,   -0.32274    -0.63374,    0.33949

                     WFN1 Final Alpha Natural Orbital Analysis
                     -----------------------------------------

 Vector    1  Occ=4.843549D-01  E= 0.000000D+00
              MO Center=  0.0D+00,  0.0D+00, -7.2D-08, r^2= 9.3D+00
   Bfn.  Coefficient  Atom+Function         Bfn.  Coefficient  Atom+Function  
  ----- ------------  ---------------      ----- ------------  ---------------
     2     -0.513857  1 H  s                  4     -0.513856  2 H  s          
     1     -0.253645  1 H  s                  3     -0.253645  2 H  s          

 Vector    2  Occ=4.839346D-01  E= 0.000000D+00
              MO Center=  0.0D+00,  0.0D+00,  7.2D-08, r^2= 9.3D+00
   Bfn.  Coefficient  Atom+Function         Bfn.  Coefficient  Atom+Function  
  ----- ------------  ---------------      ----- ------------  ---------------
     2      0.513756  1 H  s                  4     -0.513756  2 H  s          
     1      0.253788  1 H  s                  3     -0.253788  2 H  s          

 Vector    3  Occ=1.586025D-02  E= 0.000000D+00
              MO Center=  0.0D+00,  0.0D+00,  2.2D-07, r^2= 9.6D+00
   Bfn.  Coefficient  Atom+Function         Bfn.  Coefficient  Atom+Function  
  ----- ------------  ---------------      ----- ------------  ---------------
     1     -0.904434  1 H  s                  3     -0.904434  2 H  s          
     2      0.786280  1 H  s                  4      0.786280  2 H  s          

 Vector    4  Occ=1.585018D-02  E= 0.000000D+00
              MO Center=  0.0D+00,  0.0D+00, -2.2D-07, r^2= 9.6D+00
   Bfn.  Coefficient  Atom+Function         Bfn.  Coefficient  Atom+Function  
  ----- ------------  ---------------      ----- ------------  ---------------
     1     -0.904438  1 H  s                  3      0.904438  2 H  s          
     2      0.786463  1 H  s                  4     -0.786463  2 H  s          


                     WFN1 Final Beta Natural Orbital Analysis
                     ----------------------------------------

 Vector    1  Occ=4.843549D-01  E= 0.000000D+00
              MO Center=  0.0D+00,  0.0D+00, -7.2D-08, r^2= 9.3D+00
   Bfn.  Coefficient  Atom+Function         Bfn.  Coefficient  Atom+Function  
  ----- ------------  ---------------      ----- ------------  ---------------
     2     -0.513857  1 H  s                  4     -0.513856  2 H  s          
     1     -0.253645  1 H  s                  3     -0.253645  2 H  s          

 Vector    2  Occ=4.839346D-01  E= 0.000000D+00
              MO Center=  0.0D+00,  0.0D+00,  7.2D-08, r^2= 9.3D+00
   Bfn.  Coefficient  Atom+Function         Bfn.  Coefficient  Atom+Function  
  ----- ------------  ---------------      ----- ------------  ---------------
     2      0.513756  1 H  s                  4     -0.513756  2 H  s          
     1      0.253788  1 H  s                  3     -0.253788  2 H  s          

 Vector    3  Occ=1.586025D-02  E= 0.000000D+00
              MO Center=  0.0D+00,  0.0D+00,  2.2D-07, r^2= 9.6D+00
   Bfn.  Coefficient  Atom+Function         Bfn.  Coefficient  Atom+Function  
  ----- ------------  ---------------      ----- ------------  ---------------
     1     -0.904434  1 H  s                  3     -0.904434  2 H  s          
     2      0.786280  1 H  s                  4      0.786280  2 H  s          

 Vector    4  Occ=1.585018D-02  E= 0.000000D+00
              MO Center=  0.0D+00,  0.0D+00, -2.2D-07, r^2= 9.6D+00
   Bfn.  Coefficient  Atom+Function         Bfn.  Coefficient  Atom+Function  
  ----- ------------  ---------------      ----- ------------  ---------------
     1     -0.904438  1 H  s                  3      0.904438  2 H  s          
     2      0.786463  1 H  s                  4     -0.786463  2 H  s          


 Task  times  cpu:        7.8s     wall:       10.8s
 Summary of allocated global arrays
-----------------------------------
  No active global arrays



                         GA Statistics for process    0
                         ------------------------------

       create   destroy   get      put      acc     scatter   gather  read&inc
calls:   44       44     5.00e+06 1.06e+04 1.37e+04    0        0       10     
number of processes/call 1.00e+00 1.00e+00 1.00e+00 0.00e+00 0.00e+00
bytes total:             6.43e+08 1.76e+06 2.19e+06 0.00e+00 0.00e+00 8.00e+01
bytes remote:            0.00e+00 0.00e+00 0.00e+00 0.00e+00 0.00e+00 0.00e+00
Max memory consumed for GA by this process: 10624 bytes
MA_summarize_allocated_blocks: starting scan ...
MA_summarize_allocated_blocks: scan completed: 0 heap blocks, 0 stack blocks
MA usage statistics:

	allocation statistics:
					      heap	     stack
					      ----	     -----
	current number of blocks	         0	         0
	maximum number of blocks	        19	        17
	current total bytes		         0	         0
	maximum total bytes		   3204360	  22508648
	maximum total K-bytes		      3205	     22509
	maximum total M-bytes		         4	        23


                                NWChem Input Module
                                -------------------





                                     CITATION
                                     --------
                Please cite the following reference when publishing
                           results obtained with NWChem:

                 M. Valiev, E.J. Bylaska, N. Govind, K. Kowalski,
              T.P. Straatsma, H.J.J. van Dam, D. Wang, J. Nieplocha,
                        E. Apra, T.L. Windus, W.A. de Jong
                 "NWChem: a comprehensive and scalable open-source
                  solution for large scale molecular simulations"
                      Comput. Phys. Commun. 181, 1477 (2010)
                           doi:10.1016/j.cpc.2010.04.018

                                      AUTHORS
                                      -------
          E. Apra, E. J. Bylaska, W. A. de Jong, N. Govind, K. Kowalski,
       T. P. Straatsma, M. Valiev, H. J. J. van Dam, D. Wang, T. L. Windus,
        J. Hammond, J. Autschbach, K. Bhaskaran-Nair, J. Brabec, K. Lopata,
    S. A. Fischer, S. Krishnamoorthy, M. Jacquelin, W. Ma, M. Klemm, O. Villa,
      Y. Chen, V. Anisimov, F. Aquino, S. Hirata, M. T. Hackler, V. Konjkov,
      T. Risthaus, M. Malagoli, A. Marenich, A. Otero-de-la-Roza, J. Mullin,
        P. Nichols, R. Peverati, J. Pittner, Y. Zhao, P.-D. Fan, A. Fonari,
       M. Williamson, R. J. Harrison, J. R. Rehr, M. Dupuis, D. Silverstein,
    D. M. A. Smith, J. Nieplocha, V. Tipparaju, M. Krishnan, B. E. Van Kuiken,
        A. Vazquez-Mayagoitia, L. Jensen, M. Swart, Q. Wu, T. Van Voorhis,
     A. A. Auer, M. Nooijen, L. D. Crosby, E. Brown, G. Cisneros, G. I. Fann,
   H. Fruchtl, J. Garza, K. Hirao, R. A. Kendall, J. A. Nichols, K. Tsemekhman,
    K. Wolinski, J. Anchell, D. E. Bernholdt, P. Borowski, T. Clark, D. Clerc,
   H. Dachsel, M. J. O. Deegan, K. Dyall, D. Elwood, E. Glendening, M. Gutowski,
   A. C. Hess, J. Jaffe, B. G. Johnson, J. Ju, R. Kobayashi, R. Kutteh, Z. Lin,
   R. Littlefield, X. Long, B. Meng, T. Nakajima, S. Niu, L. Pollack, M. Rosing,
   K. Glaesemann, G. Sandrone, M. Stave, H. Taylor, G. Thomas, J. H. van Lenthe,
                               A. T. Wong, Z. Zhang.

 Total times  cpu:        7.8s     wall:       10.8s
