 argument  1 = input-wf.nw



============================== echo of input deck ==============================
echo
start wfn1_dat
geometry units au noautoz
  H 0 0 -3.29434600000000000000
  H 0 0  3.29434600000000000000
  symmetry cs
end
basis
  H library 6-31g
end
set wfn1:input_vectors "atomic"
set wfn1:solver "monte-carlo"
set wfn1:print_error F
set wfn1:t_initial 0.1
#set wfn1:corr_expr "wfn1_mx"
set wfn1:corr_expr "wfn1c"
set wfn1:t_bath 0.0
set wfn1:maxit  20000
task wfn1 energy
================================================================================


                                         
                                         


              Northwest Computational Chemistry Package (NWChem) 6.8
              ------------------------------------------------------


                    Environmental Molecular Sciences Laboratory
                       Pacific Northwest National Laboratory
                                Richland, WA 99352

                              Copyright (c) 1994-2015
                       Pacific Northwest National Laboratory
                            Battelle Memorial Institute

             NWChem is an open-source computational chemistry package
                        distributed under the terms of the
                      Educational Community License (ECL) 2.0
             A copy of the license is included with this distribution
                              in the LICENSE.TXT file

                                  ACKNOWLEDGMENT
                                  --------------

            This software and its documentation were developed at the
            EMSL at Pacific Northwest National Laboratory, a multiprogram
            national laboratory, operated for the U.S. Department of Energy
            by Battelle under Contract Number DE-AC05-76RL01830. Support
            for this work was provided by the Department of Energy Office
            of Biological and Environmental Research, Office of Basic
            Energy Sciences, and the Office of Advanced Scientific Computing.


           Job information
           ---------------

    hostname        = erato
    program         = ../../../bin/LINUX64/nwchem
    date            = Mon Mar  1 01:45:35 2021

    compiled        = Sun_Feb_28_18:02:42_2021
    source          = /home/hvandam/nwchem-1-wfn1
    nwchem branch   = Development
    nwchem revision = nwchem_on_git-124-gad72d19fff205e319ffbbf2bca37a04ded6ad57b
    ga revision     = nwchem_on_git-124-gad72d19
    use scalapack   = F
    input           = input-wf.nw
    prefix          = wfn1_dat.
    data base       = ./wfn1_dat.db
    status          = startup
    nproc           =        1
    time left       =     -1s



           Memory information
           ------------------

    heap     =   13107200 doubles =    100.0 Mbytes
    stack    =   13107197 doubles =    100.0 Mbytes
    global   =   26214400 doubles =    200.0 Mbytes (distinct from heap & stack)
    total    =   52428797 doubles =    400.0 Mbytes
    verify   = yes
    hardfail = no 


           Directory information
           ---------------------

  0 permanent = .
  0 scratch   = .




                                NWChem Input Module
                                -------------------


 Turning off AUTOSYM since
 SYMMETRY directive was detected!



                             Geometry "geometry" -> ""
                             -------------------------

 Output coordinates in a.u. (scale by  1.000000000 to convert to a.u.)

  No.       Tag          Charge          X              Y              Z
 ---- ---------------- ---------- -------------- -------------- --------------
    1 H                    1.0000     0.00000000     0.00000000    -3.29434600
    2 H                    1.0000     0.00000000     0.00000000     3.29434600

      Atomic Mass 
      ----------- 

      H                  1.007825


 Effective nuclear repulsion energy (a.u.)       0.1517751930

            Nuclear Dipole moment (a.u.) 
            ----------------------------
        X                 Y               Z
 ---------------- ---------------- ----------------
     0.0000000000     0.0000000000     0.0000000000

      Symmetry information
      --------------------

 Group name             Cs        
 Group number              2
 Group order               2
 No. of unique centers     1

      Symmetry unique atoms

     1


            XYZ format geometry
            -------------------
     2
 geometry
 H                     0.00000000     0.00000000    -1.74329295
 H                     0.00000000     0.00000000     1.74329295

                      Basis "ao basis" -> "" (cartesian)
                      -----
  H (Hydrogen)
  ------------
            Exponent  Coefficients 
       -------------- ---------------------------------------------------------
  1 S  1.87311370E+01  0.033495
  1 S  2.82539370E+00  0.234727
  1 S  6.40121700E-01  0.813757

  2 S  1.61277800E-01  1.000000



 Summary of "ao basis" -> "" (cartesian)
 ------------------------------------------------------------------------------
       Tag                 Description            Shells   Functions and Types
 ---------------- ------------------------------  ------  ---------------------
 H                           6-31g                   2        2   2s



                                NWChem WFN1 Module
                                ------------------



          No. of electrons :     2
           Alpha electrons :     1
            Beta electrons :     1
          Charge           :     0
          Spin multiplicity:     1

 HvD: wfn1_inpdft
 HvD: nquad_task =                     1
 HvD: iangquad   =                     0
 HvD: gridtype   = user      
 HvD: leb        =  T
 HvD: radgrid    = murakn    
 HvD: trunc_neigh=  T
 HvD: lssw       =  T
 HvD: whichssw   = erf1    
 HvD: mxnrad     =                     0
 HvD: mxnang     =                     0
 HVD: wfn1: movecs_in  = atomic                                                                                                                                                                                                                                                          
 HVD: wfn1: movecs_out = ./wfn1_dat.movecs                                                                                                                                                                                                                                               

      Superposition of Atomic Density Guess
      -------------------------------------

 Sum of atomic energies:          -0.99646508

      Non-variational initial energy
      ------------------------------

 Total energy =      -0.682164
 1-e energy   =      -1.300016
 2-e energy   =       0.466077
 HOMO         =      -0.199764
 LUMO         =      -0.182472

 iteration              energy           error
 ---------              ------           -----
         0         -0.88170430        0.080000
         1         -0.88543394        0.080000
         2         -0.89186151        0.080000
         3         -0.89653277        0.080000
         4         -0.90086241        0.080000
         5         -0.90700761        0.080000
         6         -0.91449141        0.080000
         7         -0.91638001        0.080000
         8         -0.91870333        0.080000
         9         -0.92164908        0.080000
        10         -0.92372460        0.080000
        11         -0.92531538        0.080000
        12         -0.92661125        0.080000
        13         -0.92729334        0.080000
        14         -0.92847615        0.080000
        15         -0.92988911        0.080000
        16         -0.93070827        0.080000
        17         -0.93083772        0.080000
        18         -0.93272162        0.080000
        19         -0.93415868        0.080000
        20         -0.93425315        0.080000
        21         -0.93496614        0.080000
        22         -0.93657536        0.080000
        23         -0.93698446        0.080000
        24         -0.93865081        0.080000
        25         -0.93911706        0.080000
        26         -0.94004564        0.080000
        27         -0.94018932        0.080000
        28         -0.94239600        0.080000
        29         -0.94308905        0.080000
        30         -0.94346265        0.080000
        31         -0.94384252        0.080000
        32         -0.94495959        0.080000
        33         -0.94545417        0.080000
        34         -0.94636452        0.080000
        35         -0.94749149        0.080000
        36         -0.94793308        0.080000
        37         -0.94817078        0.080000
        38         -0.94837605        0.080000
        39         -0.94861241        0.080000
        40         -0.94862933        0.080000
        41         -0.94871090        0.080000
        42         -0.94873999        0.080000
        43         -0.94875037        0.080000
        44         -0.94879650        0.080000
        45         -0.94882084        0.040000
        46         -0.94882635        0.040000
        47         -0.94883703        0.040000
        48         -0.94884984        0.040000
        49         -0.94886022        0.040000
        50         -0.94894170        0.040000
        51         -0.94894326        0.031748
        52         -0.94895089        0.031748
        53         -0.94895105        0.015874
        54         -0.94895274        0.015874
        55         -0.94895435        0.015874
        56         -0.94895441        0.015874
        57         -0.94895473        0.015874
        58         -0.94895821        0.015874
        59         -0.94896041        0.015874
        60         -0.94896216        0.015874
        61         -0.94896224        0.015874
        62         -0.94896356        0.015874
        63         -0.94896578        0.015874
        64         -0.94896677        0.015874
        65         -0.94896719        0.015874
        66         -0.94896865        0.015874
        67         -0.94896900        0.015874
        68         -0.94896906        0.015874
        69         -0.94896907        0.015874
        70         -0.94897194        0.015874
        71         -0.94897214        0.015874
        72         -0.94897288        0.007937
        73         -0.94897300        0.007937
        74         -0.94897327        0.007937
        75         -0.94897344        0.007937
        76         -0.94897348        0.007937
        77         -0.94897425        0.007937
        78         -0.94897516        0.007937
        79         -0.94897555        0.007937
        80         -0.94897557        0.006300
        81         -0.94897575        0.006300
        82         -0.94897577        0.003969
        83         -0.94897597        0.003969
        84         -0.94897604        0.003969
        85         -0.94897626        0.003969
        86         -0.94897629        0.003150
        87         -0.94897630        0.003150
        88         -0.94897638        0.003150
        89         -0.94897642        0.003150
        90         -0.94897649        0.001984
        91         -0.94897653        0.001984
        92         -0.94897654        0.001984
        93         -0.94897654        0.001984
        94         -0.94897656        0.001984
        95         -0.94897659        0.001984
        96         -0.94897664        0.001984
        97         -0.94897664        0.001984
        98         -0.94897666        0.001984
        99         -0.94897666        0.001984
       100         -0.94897667        0.001984
       101         -0.94897667        0.001984
       102         -0.94897673        0.001984
       103         -0.94897674        0.001984
       104         -0.94897675        0.001984
       105         -0.94897678        0.001984
       106         -0.94897678        0.001984
       107         -0.94897685        0.001984
       108         -0.94897690        0.001984
       109         -0.94897693        0.001984
       110         -0.94897693        0.001984
       111         -0.94897694        0.000992
       112         -0.94897696        0.000992
       113         -0.94897696        0.000992
       114         -0.94897696        0.000992
       115         -0.94897696        0.000992
       116         -0.94897697        0.000992
       117         -0.94897697        0.000992
       118         -0.94897698        0.000992
       119         -0.94897698        0.000625
       120         -0.94897699        0.000625
       121         -0.94897699        0.000496
       122         -0.94897699        0.000496
       123         -0.94897699        0.000496
       124         -0.94897699        0.000496
       125         -0.94897700        0.000496
       126         -0.94897700        0.000496
       127         -0.94897700        0.000496
       128         -0.94897701        0.000394
       129         -0.94897701        0.000394
       130         -0.94897701        0.000313
       131         -0.94897701        0.000313
       132         -0.94897701        0.000248
       133         -0.94897701        0.000248
       134         -0.94897701        0.000248
       135         -0.94897701        0.000248
       136         -0.94897701        0.000248
       137         -0.94897701        0.000248
       138         -0.94897701        0.000248
       139         -0.94897701        0.000248
       140         -0.94897701        0.000248
       141         -0.94897702        0.000248
       142         -0.94897702        0.000197
       143         -0.94897702        0.000197
       144         -0.94897702        0.000197
       145         -0.94897702        0.000197
       146         -0.94897702        0.000156
       147         -0.94897702        0.000156
       148         -0.94897702        0.000156
       149         -0.94897702        0.000156
       150         -0.94897702        0.000156
       151         -0.94897702        0.000156
       152         -0.94897702        0.000156
       153         -0.94897702        0.000156
       154         -0.94897702        0.000156
       155         -0.94897702        0.000124
       156         -0.94897702        0.000124
       157         -0.94897702        0.000124
       158         -0.94897702        0.000124
       159         -0.94897702        0.000124
       160         -0.94897702        0.000124
       161         -0.94897702        0.000124
       162         -0.94897702        0.000124
       163         -0.94897702        0.000098
       164         -0.94897702        0.000098
       165         -0.94897702        0.000098
       166         -0.94897702        0.000062
       167         -0.94897702        0.000062
       168         -0.94897702        0.000062
       169         -0.94897702        0.000062
       170         -0.94897702        0.000049
       171         -0.94897702        0.000031
       172         -0.94897702        0.000031
       173         -0.94897702        0.000031
       174         -0.94897702        0.000031
       175         -0.94897702        0.000031
       176         -0.94897702        0.000031
       177         -0.94897702        0.000031
       178         -0.94897702        0.000031
       179         -0.94897702        0.000031
       180         -0.94897702        0.000031
       181         -0.94897702        0.000031
       182         -0.94897702        0.000031
       183         -0.94897702        0.000031
       184         -0.94897702        0.000031
       185         -0.94897702        0.000031
       186         -0.94897702        0.000031
       187         -0.94897702        0.000031
       188         -0.94897702        0.000025
       189         -0.94897702        0.000025
       190         -0.94897702        0.000025
       191         -0.94897702        0.000025
       192         -0.94897702        0.000025
       193         -0.94897702        0.000025
       194         -0.94897702        0.000025
       195         -0.94897702        0.000025
       196         -0.94897702        0.000025
       197         -0.94897702        0.000025
       198         -0.94897702        0.000025
       199         -0.94897702        0.000025
       200         -0.94897702        0.000012
       201         -0.94897702        0.000012
       202         -0.94897702        0.000012
       203         -0.94897702        0.000012
       204         -0.94897702        0.000012
       205         -0.94897702        0.000012
       206         -0.94897702        0.000012
       207         -0.94897702        0.000008
       208         -0.94897702        0.000008
       209         -0.94897702        0.000008
       210         -0.94897702        0.000008
       211         -0.94897702        0.000008
       212         -0.94897702        0.000008
       213         -0.94897702        0.000008
       214         -0.94897702        0.000006
       215         -0.94897702        0.000004
       216         -0.94897702        0.000004
       217         -0.94897702        0.000004
       218         -0.94897702        0.000004
       219         -0.94897702        0.000004
       220         -0.94897702        0.000003
       221         -0.94897702        0.000002
       222         -0.94897702        0.000002
       223         -0.94897702        0.000002
       224         -0.94897702        0.000002
       225         -0.94897702        0.000002
       226         -0.94897702        0.000002
       227         -0.94897702        0.000002
       228         -0.94897702        0.000002
       229         -0.94897702        0.000002
       230         -0.94897702        0.000002
       231         -0.94897702        0.000002
       232         -0.94897702        0.000002
       233         -0.94897702        0.000001
       234         -0.94897702        0.000001
       235         -0.94897702        0.000001

 Reached Convergence

 WFN1                     :
 --------------------------
 Total WFN1 energy  =          -0.9489770202
 1-Electron energy  =          -1.2313562086
 2-Electron energy  =           0.3712367275
 Correlation energy =          -0.2406327321
 DFT XC energy      =           0.0000000000
 Entropy energy     =           0.0000000000
 Nuclear energy     =           0.1517751930

 conventional Hartree-Fock:
 --------------------------
 Total SCF energy  =          -0.8588072261
 2-Electron energy =           0.4614065216

                WFN1 Final Natural orbital energies and occupations
                ---------------------------------------------------

              Alpha       Beta            Alpha       Beta  
            --------    --------        --------    --------
       1      0.0000      0.0000          0.5213      0.5213
       2      0.0000      0.0000          0.4452      0.4452
       3      0.0000      0.0000          0.0178      0.0178
       4      0.0000      0.0000          0.0156      0.0156

             WFN1 Final Correlation function energies and occupations
             --------------------------------------------------------

              Alpha       Beta            Alpha       Beta  
            --------    --------        --------    --------
       1      0.0000      0.0000          1.0000      1.0000
       2      0.0000      0.0000          0.0000      0.0000
       3      0.0000      0.0000          0.0000      0.0000
       4      0.0000      0.0000          0.0000      0.0000

                WFN1 Final alpha-alpha 2-matrix occupation numbers
                --------------------------------------------------


 global array: g_momo1[1:4,1:4],  handle: -990 

            1           2           3           4  
       ----------- ----------- ----------- -----------
   1       0.00000     0.00000    -0.00000     0.00000
   2       0.00000     0.00000     0.00000    -0.00000
   3       0.00000     0.00000     0.00000     0.00000
   4       0.00000     0.00000     0.00000     0.00000

                 WFN1 Final beta-beta 2-matrix occupation numbers
                 ------------------------------------------------


 global array: g_momo2[1:4,1:4],  handle: -989 

            1           2           3           4  
       ----------- ----------- ----------- -----------
   1       0.00000     0.00000    -0.00000     0.00000
   2       0.00000     0.00000     0.00000    -0.00000
   3       0.00000     0.00000     0.00000     0.00000
   4       0.00000     0.00000     0.00000     0.00000

                  WFN1 Final alpha Correlation Function Analysis
                  ----------------------------------------------


 global array: Ca[1:4,1:4],  handle: -977 

                     1                       2                       3                       4  
       ----------------------- ----------------------- ----------------------- -----------------------
   1      -0.12024,   -0.71196    -0.11399,   -0.66574    -0.13861,    0.04326     0.00534,    0.03665
   2      -0.64963,    0.15234     0.71356,   -0.17671     0.05057,    0.07187     0.05095,   -0.06366
   3      -0.04906,   -0.12402    -0.05484,   -0.01283     0.47271,   -0.65184     0.33726,   -0.46579
   4       0.04502,   -0.11665     0.00452,    0.01453     0.44268,    0.35621    -0.64715,   -0.49242

                   WFN1 Final beta Correlation Function Analysis
                   ---------------------------------------------


 global array: Cb[1:4,1:4],  handle: -976 

                     1                       2                       3                       4  
       ----------------------- ----------------------- ----------------------- -----------------------
   1      -0.12024,   -0.71196    -0.11399,   -0.66574    -0.13861,    0.04326     0.00534,    0.03665
   2      -0.64963,    0.15234     0.71356,   -0.17671     0.05057,    0.07187     0.05095,   -0.06366
   3      -0.04906,   -0.12402    -0.05484,   -0.01283     0.47271,   -0.65184     0.33726,   -0.46579
   4       0.04502,   -0.11665     0.00452,    0.01453     0.44268,    0.35621    -0.64715,   -0.49242

                     WFN1 Final Alpha Natural Orbital Analysis
                     -----------------------------------------

 Vector    1  Occ=5.213450D-01  E= 0.000000D+00
              MO Center=  0.0D+00,  0.0D+00,  2.9D-07, r^2= 3.9D+00
   Bfn.  Coefficient  Atom+Function         Bfn.  Coefficient  Atom+Function  
  ----- ------------  ---------------      ----- ------------  ---------------
     2     -0.516317  1 H  s                  4     -0.516317  2 H  s          
     1     -0.243485  1 H  s                  3     -0.243485  2 H  s          

 Vector    2  Occ=4.452324D-01  E= 0.000000D+00
              MO Center=  0.0D+00,  0.0D+00, -2.8D-07, r^2= 4.0D+00
   Bfn.  Coefficient  Atom+Function         Bfn.  Coefficient  Atom+Function  
  ----- ------------  ---------------      ----- ------------  ---------------
     2      0.510786  1 H  s                  4     -0.510786  2 H  s          
     1      0.264293  1 H  s                  3     -0.264293  2 H  s          

 Vector    3  Occ=1.778788D-02  E= 0.000000D+00
              MO Center=  0.0D+00,  0.0D+00,  1.3D-06, r^2= 4.0D+00
   Bfn.  Coefficient  Atom+Function         Bfn.  Coefficient  Atom+Function  
  ----- ------------  ---------------      ----- ------------  ---------------
     1     -0.898952  1 H  s                  3     -0.898953  2 H  s          
     2      0.758556  1 H  s                  4      0.758557  2 H  s          

 Vector    4  Occ=1.563480D-02  E= 0.000000D+00
              MO Center=  0.0D+00,  0.0D+00, -1.3D-06, r^2= 4.3D+00
   Bfn.  Coefficient  Atom+Function         Bfn.  Coefficient  Atom+Function  
  ----- ------------  ---------------      ----- ------------  ---------------
     1     -0.910510  1 H  s                  3      0.910509  2 H  s          
     2      0.816056  1 H  s                  4     -0.816056  2 H  s          


                     WFN1 Final Beta Natural Orbital Analysis
                     ----------------------------------------

 Vector    1  Occ=5.213450D-01  E= 0.000000D+00
              MO Center=  0.0D+00,  0.0D+00,  2.9D-07, r^2= 3.9D+00
   Bfn.  Coefficient  Atom+Function         Bfn.  Coefficient  Atom+Function  
  ----- ------------  ---------------      ----- ------------  ---------------
     2     -0.516317  1 H  s                  4     -0.516317  2 H  s          
     1     -0.243485  1 H  s                  3     -0.243485  2 H  s          

 Vector    2  Occ=4.452324D-01  E= 0.000000D+00
              MO Center=  0.0D+00,  0.0D+00, -2.8D-07, r^2= 4.0D+00
   Bfn.  Coefficient  Atom+Function         Bfn.  Coefficient  Atom+Function  
  ----- ------------  ---------------      ----- ------------  ---------------
     2      0.510786  1 H  s                  4     -0.510786  2 H  s          
     1      0.264293  1 H  s                  3     -0.264293  2 H  s          

 Vector    3  Occ=1.778788D-02  E= 0.000000D+00
              MO Center=  0.0D+00,  0.0D+00,  1.3D-06, r^2= 4.0D+00
   Bfn.  Coefficient  Atom+Function         Bfn.  Coefficient  Atom+Function  
  ----- ------------  ---------------      ----- ------------  ---------------
     1     -0.898952  1 H  s                  3     -0.898953  2 H  s          
     2      0.758556  1 H  s                  4      0.758557  2 H  s          

 Vector    4  Occ=1.563480D-02  E= 0.000000D+00
              MO Center=  0.0D+00,  0.0D+00, -1.3D-06, r^2= 4.3D+00
   Bfn.  Coefficient  Atom+Function         Bfn.  Coefficient  Atom+Function  
  ----- ------------  ---------------      ----- ------------  ---------------
     1     -0.910510  1 H  s                  3      0.910509  2 H  s          
     2      0.816056  1 H  s                  4     -0.816056  2 H  s          


 Task  times  cpu:        9.2s     wall:       12.4s
 Summary of allocated global arrays
-----------------------------------
  No active global arrays



                         GA Statistics for process    0
                         ------------------------------

       create   destroy   get      put      acc     scatter   gather  read&inc
calls:   44       44     6.92e+06 1.46e+04 1.90e+04    0        0       11     
number of processes/call 1.00e+00 1.00e+00 1.00e+00 0.00e+00 0.00e+00
bytes total:             8.89e+08 2.42e+06 3.02e+06 0.00e+00 0.00e+00 8.80e+01
bytes remote:            0.00e+00 0.00e+00 0.00e+00 0.00e+00 0.00e+00 0.00e+00
Max memory consumed for GA by this process: 10624 bytes
MA_summarize_allocated_blocks: starting scan ...
MA_summarize_allocated_blocks: scan completed: 0 heap blocks, 0 stack blocks
MA usage statistics:

	allocation statistics:
					      heap	     stack
					      ----	     -----
	current number of blocks	         0	         0
	maximum number of blocks	        19	        17
	current total bytes		         0	         0
	maximum total bytes		   3204328	  22508616
	maximum total K-bytes		      3205	     22509
	maximum total M-bytes		         4	        23


                                NWChem Input Module
                                -------------------





                                     CITATION
                                     --------
                Please cite the following reference when publishing
                           results obtained with NWChem:

                 M. Valiev, E.J. Bylaska, N. Govind, K. Kowalski,
              T.P. Straatsma, H.J.J. van Dam, D. Wang, J. Nieplocha,
                        E. Apra, T.L. Windus, W.A. de Jong
                 "NWChem: a comprehensive and scalable open-source
                  solution for large scale molecular simulations"
                      Comput. Phys. Commun. 181, 1477 (2010)
                           doi:10.1016/j.cpc.2010.04.018

                                      AUTHORS
                                      -------
          E. Apra, E. J. Bylaska, W. A. de Jong, N. Govind, K. Kowalski,
       T. P. Straatsma, M. Valiev, H. J. J. van Dam, D. Wang, T. L. Windus,
        J. Hammond, J. Autschbach, K. Bhaskaran-Nair, J. Brabec, K. Lopata,
    S. A. Fischer, S. Krishnamoorthy, M. Jacquelin, W. Ma, M. Klemm, O. Villa,
      Y. Chen, V. Anisimov, F. Aquino, S. Hirata, M. T. Hackler, V. Konjkov,
      T. Risthaus, M. Malagoli, A. Marenich, A. Otero-de-la-Roza, J. Mullin,
        P. Nichols, R. Peverati, J. Pittner, Y. Zhao, P.-D. Fan, A. Fonari,
       M. Williamson, R. J. Harrison, J. R. Rehr, M. Dupuis, D. Silverstein,
    D. M. A. Smith, J. Nieplocha, V. Tipparaju, M. Krishnan, B. E. Van Kuiken,
        A. Vazquez-Mayagoitia, L. Jensen, M. Swart, Q. Wu, T. Van Voorhis,
     A. A. Auer, M. Nooijen, L. D. Crosby, E. Brown, G. Cisneros, G. I. Fann,
   H. Fruchtl, J. Garza, K. Hirao, R. A. Kendall, J. A. Nichols, K. Tsemekhman,
    K. Wolinski, J. Anchell, D. E. Bernholdt, P. Borowski, T. Clark, D. Clerc,
   H. Dachsel, M. J. O. Deegan, K. Dyall, D. Elwood, E. Glendening, M. Gutowski,
   A. C. Hess, J. Jaffe, B. G. Johnson, J. Ju, R. Kobayashi, R. Kutteh, Z. Lin,
   R. Littlefield, X. Long, B. Meng, T. Nakajima, S. Niu, L. Pollack, M. Rosing,
   K. Glaesemann, G. Sandrone, M. Stave, H. Taylor, G. Thomas, J. H. van Lenthe,
                               A. T. Wong, Z. Zhang.

 Total times  cpu:        9.2s     wall:       12.4s
