 argument  1 = input-wf.nw



============================== echo of input deck ==============================
echo
start wfn1_dat
geometry units au noautoz
  H 0 0 -2.34434600000000000000
  H 0 0  2.34434600000000000000
  symmetry cs
end
basis
  H library 6-31g
end
set wfn1:input_vectors "atomic"
set wfn1:solver "monte-carlo"
set wfn1:print_error F
set wfn1:t_initial 0.1
#set wfn1:corr_expr "wfn1_mx"
set wfn1:corr_expr "wfn1c"
set wfn1:t_bath 0.0
set wfn1:maxit  20000
task wfn1 energy
================================================================================


                                         
                                         


              Northwest Computational Chemistry Package (NWChem) 6.8
              ------------------------------------------------------


                    Environmental Molecular Sciences Laboratory
                       Pacific Northwest National Laboratory
                                Richland, WA 99352

                              Copyright (c) 1994-2015
                       Pacific Northwest National Laboratory
                            Battelle Memorial Institute

             NWChem is an open-source computational chemistry package
                        distributed under the terms of the
                      Educational Community License (ECL) 2.0
             A copy of the license is included with this distribution
                              in the LICENSE.TXT file

                                  ACKNOWLEDGMENT
                                  --------------

            This software and its documentation were developed at the
            EMSL at Pacific Northwest National Laboratory, a multiprogram
            national laboratory, operated for the U.S. Department of Energy
            by Battelle under Contract Number DE-AC05-76RL01830. Support
            for this work was provided by the Department of Energy Office
            of Biological and Environmental Research, Office of Basic
            Energy Sciences, and the Office of Advanced Scientific Computing.


           Job information
           ---------------

    hostname        = erato
    program         = ../../../bin/LINUX64/nwchem
    date            = Mon Mar  1 01:40:36 2021

    compiled        = Sun_Feb_28_18:02:42_2021
    source          = /home/hvandam/nwchem-1-wfn1
    nwchem branch   = Development
    nwchem revision = nwchem_on_git-124-gad72d19fff205e319ffbbf2bca37a04ded6ad57b
    ga revision     = nwchem_on_git-124-gad72d19
    use scalapack   = F
    input           = input-wf.nw
    prefix          = wfn1_dat.
    data base       = ./wfn1_dat.db
    status          = startup
    nproc           =        1
    time left       =     -1s



           Memory information
           ------------------

    heap     =   13107200 doubles =    100.0 Mbytes
    stack    =   13107197 doubles =    100.0 Mbytes
    global   =   26214400 doubles =    200.0 Mbytes (distinct from heap & stack)
    total    =   52428797 doubles =    400.0 Mbytes
    verify   = yes
    hardfail = no 


           Directory information
           ---------------------

  0 permanent = .
  0 scratch   = .




                                NWChem Input Module
                                -------------------


 Turning off AUTOSYM since
 SYMMETRY directive was detected!



                             Geometry "geometry" -> ""
                             -------------------------

 Output coordinates in a.u. (scale by  1.000000000 to convert to a.u.)

  No.       Tag          Charge          X              Y              Z
 ---- ---------------- ---------- -------------- -------------- --------------
    1 H                    1.0000     0.00000000     0.00000000    -2.34434600
    2 H                    1.0000     0.00000000     0.00000000     2.34434600

      Atomic Mass 
      ----------- 

      H                  1.007825


 Effective nuclear repulsion energy (a.u.)       0.2132790979

            Nuclear Dipole moment (a.u.) 
            ----------------------------
        X                 Y               Z
 ---------------- ---------------- ----------------
     0.0000000000     0.0000000000     0.0000000000

      Symmetry information
      --------------------

 Group name             Cs        
 Group number              2
 Group order               2
 No. of unique centers     1

      Symmetry unique atoms

     1


            XYZ format geometry
            -------------------
     2
 geometry
 H                     0.00000000     0.00000000    -1.24057457
 H                     0.00000000     0.00000000     1.24057457

                      Basis "ao basis" -> "" (cartesian)
                      -----
  H (Hydrogen)
  ------------
            Exponent  Coefficients 
       -------------- ---------------------------------------------------------
  1 S  1.87311370E+01  0.033495
  1 S  2.82539370E+00  0.234727
  1 S  6.40121700E-01  0.813757

  2 S  1.61277800E-01  1.000000



 Summary of "ao basis" -> "" (cartesian)
 ------------------------------------------------------------------------------
       Tag                 Description            Shells   Functions and Types
 ---------------- ------------------------------  ------  ---------------------
 H                           6-31g                   2        2   2s



                                NWChem WFN1 Module
                                ------------------



          No. of electrons :     2
           Alpha electrons :     1
            Beta electrons :     1
          Charge           :     0
          Spin multiplicity:     1

 HvD: wfn1_inpdft
 HvD: nquad_task =                     1
 HvD: iangquad   =                     0
 HvD: gridtype   = user      
 HvD: leb        =  T
 HvD: radgrid    = murakn    
 HvD: trunc_neigh=  T
 HvD: lssw       =  T
 HvD: whichssw   = erf1    
 HvD: mxnrad     =                     0
 HvD: mxnang     =                     0
 HVD: wfn1: movecs_in  = atomic                                                                                                                                                                                                                                                          
 HVD: wfn1: movecs_out = ./wfn1_dat.movecs                                                                                                                                                                                                                                               

      Superposition of Atomic Density Guess
      -------------------------------------

 Sum of atomic energies:          -0.99646508

      Non-variational initial energy
      ------------------------------

 Total energy =      -0.684664
 1-e energy   =      -1.422993
 2-e energy   =       0.525049
 HOMO         =      -0.230588
 LUMO         =      -0.148515

 iteration              energy           error
 ---------              ------           -----
         0         -0.90728161        0.080000
         1         -0.90893216        0.080000
         2         -0.91204563        0.080000
         3         -0.91446664        0.080000
         4         -0.91990432        0.080000
         5         -0.92079260        0.080000
         6         -0.92391495        0.080000
         7         -0.92999678        0.080000
         8         -0.93307519        0.080000
         9         -0.93545980        0.080000
        10         -0.93589737        0.080000
        11         -0.93747264        0.080000
        12         -0.93985993        0.080000
        13         -0.94173797        0.080000
        14         -0.94404747        0.080000
        15         -0.94693123        0.080000
        16         -0.94868482        0.080000
        17         -0.95202880        0.080000
        18         -0.95209451        0.080000
        19         -0.95316527        0.080000
        20         -0.95393659        0.080000
        21         -0.95639951        0.080000
        22         -0.95700497        0.080000
        23         -0.95871099        0.080000
        24         -0.96020675        0.080000
        25         -0.96142556        0.080000
        26         -0.96266127        0.080000
        27         -0.96282637        0.080000
        28         -0.96416192        0.080000
        29         -0.96531679        0.080000
        30         -0.96654334        0.080000
        31         -0.96675734        0.080000
        32         -0.96712408        0.080000
        33         -0.96759197        0.080000
        34         -0.96811933        0.080000
        35         -0.96860614        0.080000
        36         -0.96861092        0.080000
        37         -0.96871451        0.080000
        38         -0.96900295        0.080000
        39         -0.96941052        0.080000
        40         -0.97009050        0.080000
        41         -0.97013802        0.080000
        42         -0.97020181        0.080000
        43         -0.97037320        0.080000
        44         -0.97044508        0.080000
        45         -0.97048025        0.080000
        46         -0.97066093        0.080000
        47         -0.97077325        0.080000
        48         -0.97084453        0.080000
        49         -0.97090332        0.080000
        50         -0.97096687        0.080000
        51         -0.97103416        0.080000
        52         -0.97104540        0.063496
        53         -0.97107322        0.063496
        54         -0.97110436        0.040000
        55         -0.97111530        0.040000
        56         -0.97112854        0.040000
        57         -0.97115592        0.040000
        58         -0.97115723        0.031748
        59         -0.97117807        0.031748
        60         -0.97118002        0.031748
        61         -0.97118164        0.031748
        62         -0.97119153        0.031748
        63         -0.97120090        0.025198
        64         -0.97120352        0.025198
        65         -0.97120709        0.025198
        66         -0.97120745        0.025198
        67         -0.97121357        0.025198
        68         -0.97121714        0.020000
        69         -0.97122013        0.020000
        70         -0.97122144        0.020000
        71         -0.97122287        0.015874
        72         -0.97122298        0.015874
        73         -0.97122535        0.015874
        74         -0.97122877        0.015874
        75         -0.97122970        0.010000
        76         -0.97123078        0.010000
        77         -0.97123229        0.010000
        78         -0.97123336        0.010000
        79         -0.97123370        0.010000
        80         -0.97123448        0.007937
        81         -0.97123527        0.006300
        82         -0.97123567        0.005000
        83         -0.97123572        0.005000
        84         -0.97123578        0.005000
        85         -0.97123579        0.005000
        86         -0.97123583        0.003969
        87         -0.97123612        0.003969
        88         -0.97123631        0.003150
        89         -0.97123638        0.002500
        90         -0.97123640        0.001984
        91         -0.97123642        0.001984
        92         -0.97123644        0.001984
        93         -0.97123645        0.001984
        94         -0.97123647        0.001984
        95         -0.97123649        0.001575
        96         -0.97123651        0.001250
        97         -0.97123651        0.001250
        98         -0.97123652        0.000992
        99         -0.97123653        0.000992
       100         -0.97123653        0.000992
       101         -0.97123654        0.000992
       102         -0.97123655        0.000787
       103         -0.97123656        0.000787
       104         -0.97123656        0.000787
       105         -0.97123657        0.000787
       106         -0.97123657        0.000787
       107         -0.97123658        0.000787
       108         -0.97123658        0.000787
       109         -0.97123659        0.000787
       110         -0.97123659        0.000787
       111         -0.97123661        0.000625
       112         -0.97123662        0.000625
       113         -0.97123662        0.000625
       114         -0.97123663        0.000625
       115         -0.97123663        0.000625
       116         -0.97123664        0.000625
       117         -0.97123664        0.000625
       118         -0.97123665        0.000625
       119         -0.97123665        0.000496
       120         -0.97123665        0.000496
       121         -0.97123665        0.000496
       122         -0.97123665        0.000394
       123         -0.97123665        0.000313
       124         -0.97123666        0.000313
       125         -0.97123666        0.000313
       126         -0.97123666        0.000313
       127         -0.97123666        0.000248
       128         -0.97123666        0.000248
       129         -0.97123666        0.000248
       130         -0.97123667        0.000248
       131         -0.97123667        0.000248
       132         -0.97123667        0.000248
       133         -0.97123667        0.000248
       134         -0.97123667        0.000197
       135         -0.97123667        0.000156
       136         -0.97123667        0.000156
       137         -0.97123667        0.000156
       138         -0.97123667        0.000124
       139         -0.97123667        0.000098
       140         -0.97123667        0.000098
       141         -0.97123667        0.000098
       142         -0.97123667        0.000098
       143         -0.97123667        0.000098
       144         -0.97123667        0.000098
       145         -0.97123667        0.000098
       146         -0.97123667        0.000078
       147         -0.97123667        0.000078
       148         -0.97123667        0.000078
       149         -0.97123667        0.000078
       150         -0.97123667        0.000049
       151         -0.97123667        0.000049
       152         -0.97123667        0.000049
       153         -0.97123667        0.000049
       154         -0.97123667        0.000049
       155         -0.97123667        0.000049
       156         -0.97123667        0.000039
       157         -0.97123667        0.000039
       158         -0.97123667        0.000039
       159         -0.97123667        0.000039
       160         -0.97123667        0.000025
       161         -0.97123667        0.000025
       162         -0.97123667        0.000025
       163         -0.97123667        0.000025
       164         -0.97123667        0.000025
       165         -0.97123667        0.000025
       166         -0.97123667        0.000025
       167         -0.97123667        0.000025
       168         -0.97123667        0.000025
       169         -0.97123667        0.000025
       170         -0.97123667        0.000020
       171         -0.97123667        0.000020
       172         -0.97123667        0.000020
       173         -0.97123667        0.000016
       174         -0.97123667        0.000016
       175         -0.97123667        0.000016
       176         -0.97123667        0.000012
       177         -0.97123667        0.000012
       178         -0.97123667        0.000012
       179         -0.97123667        0.000008
       180         -0.97123667        0.000008
       181         -0.97123667        0.000008
       182         -0.97123667        0.000008
       183         -0.97123667        0.000008
       184         -0.97123667        0.000008
       185         -0.97123667        0.000008
       186         -0.97123667        0.000008
       187         -0.97123667        0.000008
       188         -0.97123667        0.000008
       189         -0.97123667        0.000008
       190         -0.97123667        0.000008
       191         -0.97123667        0.000006
       192         -0.97123667        0.000006
       193         -0.97123667        0.000006
       194         -0.97123667        0.000006
       195         -0.97123667        0.000006
       196         -0.97123667        0.000006
       197         -0.97123667        0.000006
       198         -0.97123667        0.000006
       199         -0.97123667        0.000006
       200         -0.97123667        0.000006
       201         -0.97123667        0.000006
       202         -0.97123667        0.000005
       203         -0.97123667        0.000005
       204         -0.97123667        0.000005
       205         -0.97123667        0.000005
       206         -0.97123667        0.000004
       207         -0.97123667        0.000004
       208         -0.97123667        0.000004
       209         -0.97123667        0.000004
       210         -0.97123667        0.000004
       211         -0.97123667        0.000004
       212         -0.97123667        0.000003
       213         -0.97123667        0.000003
       214         -0.97123667        0.000003
       215         -0.97123667        0.000003
       216         -0.97123667        0.000002
       217         -0.97123667        0.000002
       218         -0.97123667        0.000002
       219         -0.97123667        0.000002
       220         -0.97123667        0.000002
       221         -0.97123667        0.000002
       222         -0.97123667        0.000001
       223         -0.97123667        0.000001
       224         -0.97123667        0.000001
       225         -0.97123667        0.000001
       226         -0.97123667        0.000001
       227         -0.97123667        0.000001
       228         -0.97123667        0.000001
       229         -0.97123667        0.000001
       230         -0.97123667        0.000001
       231         -0.97123667        0.000001
       232         -0.97123667        0.000001
       233         -0.97123667        0.000001
       234         -0.97123667        0.000001
       235         -0.97123667        0.000001
       236         -0.97123667        0.000001
       237         -0.97123667        0.000001
       238         -0.97123667        0.000001
       239         -0.97123667        0.000001
       240         -0.97123667        0.000001

 Reached Convergence

 WFN1                     :
 --------------------------
 Total WFN1 energy  =          -0.9712366679
 1-Electron energy  =          -1.3668103801
 2-Electron energy  =           0.4013345483
 Correlation energy =          -0.2190399340
 DFT XC energy      =           0.0000000000
 Entropy energy     =           0.0000000000
 Nuclear energy     =           0.2132790979

 conventional Hartree-Fock:
 --------------------------
 Total SCF energy  =          -0.8616381509
 2-Electron energy =           0.5109330653

                WFN1 Final Natural orbital energies and occupations
                ---------------------------------------------------

              Alpha       Beta            Alpha       Beta  
            --------    --------        --------    --------
       1      0.0000      0.0000          0.6374      0.6374
       2      0.0000      0.0000          0.3304      0.3304
       3      0.0000      0.0000          0.0185      0.0185
       4      0.0000      0.0000          0.0137      0.0137

             WFN1 Final Correlation function energies and occupations
             --------------------------------------------------------

              Alpha       Beta            Alpha       Beta  
            --------    --------        --------    --------
       1      0.0000      0.0000          1.0000      1.0000
       2      0.0000      0.0000          0.0000      0.0000
       3      0.0000      0.0000          0.0000      0.0000
       4      0.0000      0.0000          0.0000      0.0000

                WFN1 Final alpha-alpha 2-matrix occupation numbers
                --------------------------------------------------


 global array: g_momo1[1:4,1:4],  handle: -990 

            1           2           3           4  
       ----------- ----------- ----------- -----------
   1       0.00000     0.00000     0.00000     0.00000
   2       0.00000     0.00000     0.00000     0.00000
   3       0.00000     0.00000     0.00000     0.00000
   4       0.00000     0.00000     0.00000     0.00000

                 WFN1 Final beta-beta 2-matrix occupation numbers
                 ------------------------------------------------


 global array: g_momo2[1:4,1:4],  handle: -989 

            1           2           3           4  
       ----------- ----------- ----------- -----------
   1       0.00000     0.00000     0.00000     0.00000
   2       0.00000     0.00000     0.00000     0.00000
   3       0.00000     0.00000     0.00000     0.00000
   4       0.00000     0.00000     0.00000     0.00000

                  WFN1 Final alpha Correlation Function Analysis
                  ----------------------------------------------


 global array: Ca[1:4,1:4],  handle: -981 

                     1                       2                       3                       4  
       ----------------------- ----------------------- ----------------------- -----------------------
   1       0.16900,   -0.78026    -0.14412,    0.56156    -0.05854,    0.06165    -0.02705,   -0.13618
   2      -0.31217,   -0.48270    -0.42280,   -0.69449     0.05211,    0.03484    -0.05880,   -0.03309
   3      -0.04401,   -0.12860     0.03823,   -0.00880    -0.35217,   -0.84935     0.10532,    0.35140
   4       0.05602,    0.10281    -0.01336,   -0.03297    -0.35413,   -0.13424    -0.83293,   -0.38447

                   WFN1 Final beta Correlation Function Analysis
                   ---------------------------------------------


 global array: Cb[1:4,1:4],  handle: -980 

                     1                       2                       3                       4  
       ----------------------- ----------------------- ----------------------- -----------------------
   1       0.16900,   -0.78026    -0.14412,    0.56156    -0.05854,    0.06165    -0.02705,   -0.13618
   2      -0.31217,   -0.48270    -0.42280,   -0.69449     0.05211,    0.03484    -0.05880,   -0.03309
   3      -0.04401,   -0.12860     0.03823,   -0.00880    -0.35217,   -0.84935     0.10532,    0.35140
   4       0.05602,    0.10281    -0.01336,   -0.03297    -0.35413,   -0.13424    -0.83293,   -0.38447

                     WFN1 Final Alpha Natural Orbital Analysis
                     -----------------------------------------

 Vector    1  Occ=6.373707D-01  E= 0.000000D+00
              MO Center=  0.0D+00,  0.0D+00, -4.7D-08, r^2= 2.3D+00
   Bfn.  Coefficient  Atom+Function         Bfn.  Coefficient  Atom+Function  
  ----- ------------  ---------------      ----- ------------  ---------------
     2     -0.495130  1 H  s                  4     -0.495130  2 H  s          
     1     -0.231666  1 H  s                  3     -0.231666  2 H  s          

 Vector    2  Occ=3.304468D-01  E= 0.000000D+00
              MO Center=  0.0D+00,  0.0D+00,  8.4D-08, r^2= 2.5D+00
   Bfn.  Coefficient  Atom+Function         Bfn.  Coefficient  Atom+Function  
  ----- ------------  ---------------      ----- ------------  ---------------
     2      0.523919  1 H  s                  4     -0.523919  2 H  s          
     1      0.289420  1 H  s                  3     -0.289420  2 H  s          

 Vector    3  Occ=1.847408D-02  E= 0.000000D+00
              MO Center=  0.0D+00,  0.0D+00,  9.6D-07, r^2= 2.4D+00
   Bfn.  Coefficient  Atom+Function         Bfn.  Coefficient  Atom+Function  
  ----- ------------  ---------------      ----- ------------  ---------------
     1      0.893077  1 H  s                  3      0.893078  2 H  s          
     2     -0.694929  1 H  s                  4     -0.694929  2 H  s          

 Vector    4  Occ=1.370841D-02  E= 0.000000D+00
              MO Center=  0.0D+00,  0.0D+00, -9.9D-07, r^2= 3.1D+00
   Bfn.  Coefficient  Atom+Function         Bfn.  Coefficient  Atom+Function  
  ----- ------------  ---------------      ----- ------------  ---------------
     1     -0.922963  1 H  s                  2      0.922997  1 H  s          
     3      0.922962  2 H  s                  4     -0.922997  2 H  s          


                     WFN1 Final Beta Natural Orbital Analysis
                     ----------------------------------------

 Vector    1  Occ=6.373707D-01  E= 0.000000D+00
              MO Center=  0.0D+00,  0.0D+00, -4.7D-08, r^2= 2.3D+00
   Bfn.  Coefficient  Atom+Function         Bfn.  Coefficient  Atom+Function  
  ----- ------------  ---------------      ----- ------------  ---------------
     2     -0.495130  1 H  s                  4     -0.495130  2 H  s          
     1     -0.231666  1 H  s                  3     -0.231666  2 H  s          

 Vector    2  Occ=3.304468D-01  E= 0.000000D+00
              MO Center=  0.0D+00,  0.0D+00,  8.4D-08, r^2= 2.5D+00
   Bfn.  Coefficient  Atom+Function         Bfn.  Coefficient  Atom+Function  
  ----- ------------  ---------------      ----- ------------  ---------------
     2      0.523919  1 H  s                  4     -0.523919  2 H  s          
     1      0.289420  1 H  s                  3     -0.289420  2 H  s          

 Vector    3  Occ=1.847408D-02  E= 0.000000D+00
              MO Center=  0.0D+00,  0.0D+00,  9.6D-07, r^2= 2.4D+00
   Bfn.  Coefficient  Atom+Function         Bfn.  Coefficient  Atom+Function  
  ----- ------------  ---------------      ----- ------------  ---------------
     1      0.893077  1 H  s                  3      0.893078  2 H  s          
     2     -0.694929  1 H  s                  4     -0.694929  2 H  s          

 Vector    4  Occ=1.370841D-02  E= 0.000000D+00
              MO Center=  0.0D+00,  0.0D+00, -9.9D-07, r^2= 3.1D+00
   Bfn.  Coefficient  Atom+Function         Bfn.  Coefficient  Atom+Function  
  ----- ------------  ---------------      ----- ------------  ---------------
     1     -0.922963  1 H  s                  2      0.922997  1 H  s          
     3      0.922962  2 H  s                  4     -0.922997  2 H  s          


 Task  times  cpu:       12.1s     wall:       16.6s
 Summary of allocated global arrays
-----------------------------------
  No active global arrays



                         GA Statistics for process    0
                         ------------------------------

       create   destroy   get      put      acc     scatter   gather  read&inc
calls:   44       44     7.18e+06 1.51e+04 1.97e+04    0        0       11     
number of processes/call 1.00e+00 1.00e+00 1.00e+00 0.00e+00 0.00e+00
bytes total:             9.22e+08 2.52e+06 3.14e+06 0.00e+00 0.00e+00 8.80e+01
bytes remote:            0.00e+00 0.00e+00 0.00e+00 0.00e+00 0.00e+00 0.00e+00
Max memory consumed for GA by this process: 10624 bytes
MA_summarize_allocated_blocks: starting scan ...
MA_summarize_allocated_blocks: scan completed: 0 heap blocks, 0 stack blocks
MA usage statistics:

	allocation statistics:
					      heap	     stack
					      ----	     -----
	current number of blocks	         0	         0
	maximum number of blocks	        19	        17
	current total bytes		         0	         0
	maximum total bytes		   3204328	  22508616
	maximum total K-bytes		      3205	     22509
	maximum total M-bytes		         4	        23


                                NWChem Input Module
                                -------------------





                                     CITATION
                                     --------
                Please cite the following reference when publishing
                           results obtained with NWChem:

                 M. Valiev, E.J. Bylaska, N. Govind, K. Kowalski,
              T.P. Straatsma, H.J.J. van Dam, D. Wang, J. Nieplocha,
                        E. Apra, T.L. Windus, W.A. de Jong
                 "NWChem: a comprehensive and scalable open-source
                  solution for large scale molecular simulations"
                      Comput. Phys. Commun. 181, 1477 (2010)
                           doi:10.1016/j.cpc.2010.04.018

                                      AUTHORS
                                      -------
          E. Apra, E. J. Bylaska, W. A. de Jong, N. Govind, K. Kowalski,
       T. P. Straatsma, M. Valiev, H. J. J. van Dam, D. Wang, T. L. Windus,
        J. Hammond, J. Autschbach, K. Bhaskaran-Nair, J. Brabec, K. Lopata,
    S. A. Fischer, S. Krishnamoorthy, M. Jacquelin, W. Ma, M. Klemm, O. Villa,
      Y. Chen, V. Anisimov, F. Aquino, S. Hirata, M. T. Hackler, V. Konjkov,
      T. Risthaus, M. Malagoli, A. Marenich, A. Otero-de-la-Roza, J. Mullin,
        P. Nichols, R. Peverati, J. Pittner, Y. Zhao, P.-D. Fan, A. Fonari,
       M. Williamson, R. J. Harrison, J. R. Rehr, M. Dupuis, D. Silverstein,
    D. M. A. Smith, J. Nieplocha, V. Tipparaju, M. Krishnan, B. E. Van Kuiken,
        A. Vazquez-Mayagoitia, L. Jensen, M. Swart, Q. Wu, T. Van Voorhis,
     A. A. Auer, M. Nooijen, L. D. Crosby, E. Brown, G. Cisneros, G. I. Fann,
   H. Fruchtl, J. Garza, K. Hirao, R. A. Kendall, J. A. Nichols, K. Tsemekhman,
    K. Wolinski, J. Anchell, D. E. Bernholdt, P. Borowski, T. Clark, D. Clerc,
   H. Dachsel, M. J. O. Deegan, K. Dyall, D. Elwood, E. Glendening, M. Gutowski,
   A. C. Hess, J. Jaffe, B. G. Johnson, J. Ju, R. Kobayashi, R. Kutteh, Z. Lin,
   R. Littlefield, X. Long, B. Meng, T. Nakajima, S. Niu, L. Pollack, M. Rosing,
   K. Glaesemann, G. Sandrone, M. Stave, H. Taylor, G. Thomas, J. H. van Lenthe,
                               A. T. Wong, Z. Zhang.

 Total times  cpu:       12.1s     wall:       16.6s
