 argument  1 = input-wf.nw



============================== echo of input deck ==============================
echo
start wfn1_dat
geometry units au noautoz
  H 0 0 -2.19434600000000000000
  H 0 0  2.19434600000000000000
  symmetry cs
end
basis
  H library 6-31g
end
set wfn1:input_vectors "atomic"
set wfn1:solver "monte-carlo"
set wfn1:print_error F
set wfn1:t_initial 0.1
#set wfn1:corr_expr "wfn1_mx"
set wfn1:corr_expr "wfn1c"
set wfn1:t_bath 0.0
set wfn1:maxit  20000
task wfn1 energy
================================================================================


                                         
                                         


              Northwest Computational Chemistry Package (NWChem) 6.8
              ------------------------------------------------------


                    Environmental Molecular Sciences Laboratory
                       Pacific Northwest National Laboratory
                                Richland, WA 99352

                              Copyright (c) 1994-2015
                       Pacific Northwest National Laboratory
                            Battelle Memorial Institute

             NWChem is an open-source computational chemistry package
                        distributed under the terms of the
                      Educational Community License (ECL) 2.0
             A copy of the license is included with this distribution
                              in the LICENSE.TXT file

                                  ACKNOWLEDGMENT
                                  --------------

            This software and its documentation were developed at the
            EMSL at Pacific Northwest National Laboratory, a multiprogram
            national laboratory, operated for the U.S. Department of Energy
            by Battelle under Contract Number DE-AC05-76RL01830. Support
            for this work was provided by the Department of Energy Office
            of Biological and Environmental Research, Office of Basic
            Energy Sciences, and the Office of Advanced Scientific Computing.


           Job information
           ---------------

    hostname        = erato
    program         = ../../../bin/LINUX64/nwchem
    date            = Mon Mar  1 01:39:48 2021

    compiled        = Sun_Feb_28_18:02:42_2021
    source          = /home/hvandam/nwchem-1-wfn1
    nwchem branch   = Development
    nwchem revision = nwchem_on_git-124-gad72d19fff205e319ffbbf2bca37a04ded6ad57b
    ga revision     = nwchem_on_git-124-gad72d19
    use scalapack   = F
    input           = input-wf.nw
    prefix          = wfn1_dat.
    data base       = ./wfn1_dat.db
    status          = startup
    nproc           =        1
    time left       =     -1s



           Memory information
           ------------------

    heap     =   13107200 doubles =    100.0 Mbytes
    stack    =   13107197 doubles =    100.0 Mbytes
    global   =   26214400 doubles =    200.0 Mbytes (distinct from heap & stack)
    total    =   52428797 doubles =    400.0 Mbytes
    verify   = yes
    hardfail = no 


           Directory information
           ---------------------

  0 permanent = .
  0 scratch   = .




                                NWChem Input Module
                                -------------------


 Turning off AUTOSYM since
 SYMMETRY directive was detected!



                             Geometry "geometry" -> ""
                             -------------------------

 Output coordinates in a.u. (scale by  1.000000000 to convert to a.u.)

  No.       Tag          Charge          X              Y              Z
 ---- ---------------- ---------- -------------- -------------- --------------
    1 H                    1.0000     0.00000000     0.00000000    -2.19434600
    2 H                    1.0000     0.00000000     0.00000000     2.19434600

      Atomic Mass 
      ----------- 

      H                  1.007825


 Effective nuclear repulsion energy (a.u.)       0.2278583232

            Nuclear Dipole moment (a.u.) 
            ----------------------------
        X                 Y               Z
 ---------------- ---------------- ----------------
     0.0000000000     0.0000000000     0.0000000000

      Symmetry information
      --------------------

 Group name             Cs        
 Group number              2
 Group order               2
 No. of unique centers     1

      Symmetry unique atoms

     1


            XYZ format geometry
            -------------------
     2
 geometry
 H                     0.00000000     0.00000000    -1.16119798
 H                     0.00000000     0.00000000     1.16119798

                      Basis "ao basis" -> "" (cartesian)
                      -----
  H (Hydrogen)
  ------------
            Exponent  Coefficients 
       -------------- ---------------------------------------------------------
  1 S  1.87311370E+01  0.033495
  1 S  2.82539370E+00  0.234727
  1 S  6.40121700E-01  0.813757

  2 S  1.61277800E-01  1.000000



 Summary of "ao basis" -> "" (cartesian)
 ------------------------------------------------------------------------------
       Tag                 Description            Shells   Functions and Types
 ---------------- ------------------------------  ------  ---------------------
 H                           6-31g                   2        2   2s



                                NWChem WFN1 Module
                                ------------------



          No. of electrons :     2
           Alpha electrons :     1
            Beta electrons :     1
          Charge           :     0
          Spin multiplicity:     1

 HvD: wfn1_inpdft
 HvD: nquad_task =                     1
 HvD: iangquad   =                     0
 HvD: gridtype   = user      
 HvD: leb        =  T
 HvD: radgrid    = murakn    
 HvD: trunc_neigh=  T
 HvD: lssw       =  T
 HvD: whichssw   = erf1    
 HvD: mxnrad     =                     0
 HvD: mxnang     =                     0
 HVD: wfn1: movecs_in  = atomic                                                                                                                                                                                                                                                          
 HVD: wfn1: movecs_out = ./wfn1_dat.movecs                                                                                                                                                                                                                                               

      Superposition of Atomic Density Guess
      -------------------------------------

 Sum of atomic energies:          -0.99646508

      Non-variational initial energy
      ------------------------------

 Total energy =      -0.686435
 1-e energy   =      -1.452097
 2-e energy   =       0.537804
 HOMO         =      -0.240347
 LUMO         =      -0.137367

 iteration              energy           error
 ---------              ------           -----
         0         -0.91603329        0.080000
         1         -0.92307993        0.080000
         2         -0.92492431        0.080000
         3         -0.92503323        0.080000
         4         -0.92794273        0.080000
         5         -0.93326051        0.080000
         6         -0.93924497        0.080000
         7         -0.94055551        0.080000
         8         -0.94148348        0.080000
         9         -0.94150626        0.080000
        10         -0.94345975        0.080000
        11         -0.94545011        0.080000
        12         -0.94793617        0.080000
        13         -0.94912622        0.080000
        14         -0.95036515        0.080000
        15         -0.95168154        0.080000
        16         -0.95369743        0.080000
        17         -0.95636028        0.080000
        18         -0.95641486        0.080000
        19         -0.95655699        0.080000
        20         -0.95697812        0.080000
        21         -0.95866784        0.080000
        22         -0.95896769        0.080000
        23         -0.95947755        0.080000
        24         -0.96101060        0.080000
        25         -0.96176093        0.080000
        26         -0.96385472        0.080000
        27         -0.96475975        0.080000
        28         -0.96667687        0.080000
        29         -0.96829652        0.080000
        30         -0.96925698        0.080000
        31         -0.96949289        0.080000
        32         -0.97043828        0.080000
        33         -0.97071035        0.080000
        34         -0.97222464        0.080000
        35         -0.97293869        0.080000
        36         -0.97326288        0.080000
        37         -0.97401416        0.080000
        38         -0.97431128        0.080000
        39         -0.97436811        0.080000
        40         -0.97558750        0.080000
        41         -0.97582570        0.080000
        42         -0.97587849        0.080000
        43         -0.97631923        0.080000
        44         -0.97659764        0.080000
        45         -0.97672222        0.080000
        46         -0.97679408        0.080000
        47         -0.97682517        0.080000
        48         -0.97684313        0.080000
        49         -0.97684860        0.080000
        50         -0.97685024        0.080000
        51         -0.97694119        0.080000
        52         -0.97695268        0.050397
        53         -0.97695646        0.050397
        54         -0.97696010        0.050397
        55         -0.97698226        0.040000
        56         -0.97699896        0.040000
        57         -0.97700307        0.031748
        58         -0.97701433        0.025198
        59         -0.97701852        0.020000
        60         -0.97701865        0.020000
        61         -0.97701945        0.020000
        62         -0.97702120        0.020000
        63         -0.97702158        0.020000
        64         -0.97702265        0.012599
        65         -0.97702374        0.012599
        66         -0.97702422        0.010000
        67         -0.97702425        0.010000
        68         -0.97702444        0.010000
        69         -0.97702534        0.010000
        70         -0.97702567        0.010000
        71         -0.97702619        0.010000
        72         -0.97702634        0.010000
        73         -0.97702650        0.010000
        74         -0.97702652        0.006300
        75         -0.97702674        0.005000
        76         -0.97702688        0.003969
        77         -0.97702724        0.003150
        78         -0.97702730        0.003150
        79         -0.97702734        0.001984
        80         -0.97702735        0.001250
        81         -0.97702736        0.001250
        82         -0.97702739        0.001250
        83         -0.97702739        0.001250
        84         -0.97702740        0.001250
        85         -0.97702740        0.001250
        86         -0.97702741        0.001250
        87         -0.97702741        0.000992
        88         -0.97702742        0.000787
        89         -0.97702742        0.000787
        90         -0.97702743        0.000787
        91         -0.97702743        0.000787
        92         -0.97702743        0.000787
        93         -0.97702743        0.000625
        94         -0.97702744        0.000625
        95         -0.97702744        0.000625
        96         -0.97702745        0.000625
        97         -0.97702745        0.000625
        98         -0.97702745        0.000625
        99         -0.97702745        0.000625
       100         -0.97702745        0.000625
       101         -0.97702745        0.000496
       102         -0.97702745        0.000496
       103         -0.97702746        0.000496
       104         -0.97702746        0.000496
       105         -0.97702746        0.000394
       106         -0.97702746        0.000394
       107         -0.97702746        0.000394
       108         -0.97702746        0.000394
       109         -0.97702746        0.000248
       110         -0.97702746        0.000124
       111         -0.97702746        0.000098
       112         -0.97702746        0.000098
       113         -0.97702746        0.000098
       114         -0.97702746        0.000098
       115         -0.97702746        0.000098
       116         -0.97702746        0.000098
       117         -0.97702746        0.000098
       118         -0.97702746        0.000098
       119         -0.97702746        0.000098
       120         -0.97702746        0.000098
       121         -0.97702746        0.000098
       122         -0.97702746        0.000078
       123         -0.97702746        0.000062
       124         -0.97702746        0.000062
       125         -0.97702746        0.000062
       126         -0.97702746        0.000062
       127         -0.97702746        0.000062
       128         -0.97702746        0.000062
       129         -0.97702746        0.000062
       130         -0.97702746        0.000062
       131         -0.97702746        0.000062
       132         -0.97702746        0.000062
       133         -0.97702746        0.000062
       134         -0.97702746        0.000062
       135         -0.97702746        0.000062
       136         -0.97702746        0.000062
       137         -0.97702746        0.000062
       138         -0.97702746        0.000062
       139         -0.97702746        0.000049
       140         -0.97702746        0.000049
       141         -0.97702747        0.000049
       142         -0.97702747        0.000039
       143         -0.97702747        0.000039
       144         -0.97702747        0.000039
       145         -0.97702747        0.000031
       146         -0.97702747        0.000031
       147         -0.97702747        0.000031
       148         -0.97702747        0.000031
       149         -0.97702747        0.000031
       150         -0.97702747        0.000016
       151         -0.97702747        0.000016
       152         -0.97702747        0.000016
       153         -0.97702747        0.000012
       154         -0.97702747        0.000012
       155         -0.97702747        0.000012
       156         -0.97702747        0.000012
       157         -0.97702747        0.000012
       158         -0.97702747        0.000012
       159         -0.97702747        0.000012
       160         -0.97702747        0.000012
       161         -0.97702747        0.000012
       162         -0.97702747        0.000012
       163         -0.97702747        0.000012
       164         -0.97702747        0.000012
       165         -0.97702747        0.000012
       166         -0.97702747        0.000012
       167         -0.97702747        0.000012
       168         -0.97702747        0.000012
       169         -0.97702747        0.000010
       170         -0.97702747        0.000010
       171         -0.97702747        0.000010
       172         -0.97702747        0.000010
       173         -0.97702747        0.000010
       174         -0.97702747        0.000010
       175         -0.97702747        0.000010
       176         -0.97702747        0.000010
       177         -0.97702747        0.000010
       178         -0.97702747        0.000010
       179         -0.97702747        0.000010
       180         -0.97702747        0.000010
       181         -0.97702747        0.000008
       182         -0.97702747        0.000008
       183         -0.97702747        0.000008
       184         -0.97702747        0.000008
       185         -0.97702747        0.000008
       186         -0.97702747        0.000004
       187         -0.97702747        0.000004
       188         -0.97702747        0.000004
       189         -0.97702747        0.000004
       190         -0.97702747        0.000004
       191         -0.97702747        0.000003
       192         -0.97702747        0.000003
       193         -0.97702747        0.000003
       194         -0.97702747        0.000002
       195         -0.97702747        0.000002
       196         -0.97702747        0.000002
       197         -0.97702747        0.000002
       198         -0.97702747        0.000002
       199         -0.97702747        0.000002
       200         -0.97702747        0.000002
       201         -0.97702747        0.000002
       202         -0.97702747        0.000002
       203         -0.97702747        0.000002
       204         -0.97702747        0.000002
       205         -0.97702747        0.000002
       206         -0.97702747        0.000002
       207         -0.97702747        0.000002
       208         -0.97702747        0.000002
       209         -0.97702747        0.000002
       210         -0.97702747        0.000001
       211         -0.97702747        0.000001
       212         -0.97702747        0.000001
       213         -0.97702747        0.000001
       214         -0.97702747        0.000001
       215         -0.97702747        0.000001
       216         -0.97702747        0.000001

 Reached Convergence

 WFN1                     :
 --------------------------
 Total WFN1 energy  =          -0.9770274652
 1-Electron energy  =          -1.4031561242
 2-Electron energy  =           0.4087822820
 Correlation energy =          -0.2105119461
 DFT XC energy      =           0.0000000000
 Entropy energy     =           0.0000000000
 Nuclear energy     =           0.2278583232

 conventional Hartree-Fock:
 --------------------------
 Total SCF energy  =          -0.8669761894
 2-Electron energy =           0.5188335577

                WFN1 Final Natural orbital energies and occupations
                ---------------------------------------------------

              Alpha       Beta            Alpha       Beta  
            --------    --------        --------    --------
       1      0.0000      0.0000          0.6695      0.6695
       2      0.0000      0.0000          0.2994      0.2994
       3      0.0000      0.0000          0.0178      0.0178
       4      0.0000      0.0000          0.0132      0.0132

             WFN1 Final Correlation function energies and occupations
             --------------------------------------------------------

              Alpha       Beta            Alpha       Beta  
            --------    --------        --------    --------
       1      0.0000      0.0000          1.0000      1.0000
       2      0.0000      0.0000          0.0000      0.0000
       3      0.0000      0.0000          0.0000      0.0000
       4      0.0000      0.0000          0.0000      0.0000

                WFN1 Final alpha-alpha 2-matrix occupation numbers
                --------------------------------------------------


 global array: g_momo1[1:4,1:4],  handle: -990 

            1           2           3           4  
       ----------- ----------- ----------- -----------
   1       0.00000    -0.00000    -0.00000     0.00000
   2       0.00000     0.00000     0.00000     0.00000
   3       0.00000    -0.00000     0.00000    -0.00000
   4       0.00000    -0.00000     0.00000     0.00000

                 WFN1 Final beta-beta 2-matrix occupation numbers
                 ------------------------------------------------


 global array: g_momo2[1:4,1:4],  handle: -989 

            1           2           3           4  
       ----------- ----------- ----------- -----------
   1       0.00000    -0.00000    -0.00000     0.00000
   2       0.00000     0.00000     0.00000     0.00000
   3       0.00000    -0.00000     0.00000    -0.00000
   4       0.00000    -0.00000     0.00000     0.00000

                  WFN1 Final alpha Correlation Function Analysis
                  ----------------------------------------------


 global array: Ca[1:4,1:4],  handle: -981 

                     1                       2                       3                       4  
       ----------------------- ----------------------- ----------------------- -----------------------
   1       0.69858,   -0.42606    -0.48707,    0.25701    -0.08905,   -0.03785    -0.00365,    0.13337
   2       0.12685,    0.53227     0.10945,    0.82113     0.06341,    0.01350    -0.00477,   -0.10067
   3       0.11333,   -0.07068    -0.04994,   -0.05965     0.20129,    0.79377    -0.15238,   -0.53132
   4      -0.07719,   -0.08520    -0.05073,    0.04293    -0.42463,   -0.36816    -0.61177,   -0.54061

                   WFN1 Final beta Correlation Function Analysis
                   ---------------------------------------------


 global array: Cb[1:4,1:4],  handle: -980 

                     1                       2                       3                       4  
       ----------------------- ----------------------- ----------------------- -----------------------
   1       0.69858,   -0.42606    -0.48707,    0.25701    -0.08905,   -0.03785    -0.00365,    0.13337
   2       0.12685,    0.53227     0.10945,    0.82113     0.06341,    0.01350    -0.00477,   -0.10067
   3       0.11333,   -0.07068    -0.04994,   -0.05965     0.20129,    0.79377    -0.15238,   -0.53132
   4      -0.07719,   -0.08520    -0.05073,    0.04293    -0.42463,   -0.36816    -0.61177,   -0.54061

                     WFN1 Final Alpha Natural Orbital Analysis
                     -----------------------------------------

 Vector    1  Occ=6.695407D-01  E= 0.000000D+00
              MO Center=  0.0D+00,  0.0D+00, -9.0D-08, r^2= 2.1D+00
   Bfn.  Coefficient  Atom+Function         Bfn.  Coefficient  Atom+Function  
  ----- ------------  ---------------      ----- ------------  ---------------
     2      0.486693  1 H  s                  4      0.486693  2 H  s          
     1      0.230734  1 H  s                  3      0.230734  2 H  s          

 Vector    2  Occ=2.994017D-01  E= 0.000000D+00
              MO Center=  0.0D+00,  0.0D+00,  1.7D-07, r^2= 2.3D+00
   Bfn.  Coefficient  Atom+Function         Bfn.  Coefficient  Atom+Function  
  ----- ------------  ---------------      ----- ------------  ---------------
     2      0.530329  1 H  s                  4     -0.530329  2 H  s          
     1      0.296534  1 H  s                  3     -0.296534  2 H  s          

 Vector    3  Occ=1.783997D-02  E= 0.000000D+00
              MO Center=  0.0D+00,  0.0D+00,  1.9D-06, r^2= 2.2D+00
   Bfn.  Coefficient  Atom+Function         Bfn.  Coefficient  Atom+Function  
  ----- ------------  ---------------      ----- ------------  ---------------
     1      0.895990  1 H  s                  3      0.895992  2 H  s          
     2     -0.686052  1 H  s                  4     -0.686054  2 H  s          

 Vector    4  Occ=1.321757D-02  E= 0.000000D+00
              MO Center=  0.0D+00,  0.0D+00, -2.0D-06, r^2= 3.0D+00
   Bfn.  Coefficient  Atom+Function         Bfn.  Coefficient  Atom+Function  
  ----- ------------  ---------------      ----- ------------  ---------------
     2      0.951678  1 H  s                  4     -0.951677  2 H  s          
     1     -0.921516  1 H  s                  3      0.921515  2 H  s          


                     WFN1 Final Beta Natural Orbital Analysis
                     ----------------------------------------

 Vector    1  Occ=6.695407D-01  E= 0.000000D+00
              MO Center=  0.0D+00,  0.0D+00, -9.0D-08, r^2= 2.1D+00
   Bfn.  Coefficient  Atom+Function         Bfn.  Coefficient  Atom+Function  
  ----- ------------  ---------------      ----- ------------  ---------------
     2      0.486693  1 H  s                  4      0.486693  2 H  s          
     1      0.230734  1 H  s                  3      0.230734  2 H  s          

 Vector    2  Occ=2.994017D-01  E= 0.000000D+00
              MO Center=  0.0D+00,  0.0D+00,  1.7D-07, r^2= 2.3D+00
   Bfn.  Coefficient  Atom+Function         Bfn.  Coefficient  Atom+Function  
  ----- ------------  ---------------      ----- ------------  ---------------
     2      0.530329  1 H  s                  4     -0.530329  2 H  s          
     1      0.296534  1 H  s                  3     -0.296534  2 H  s          

 Vector    3  Occ=1.783997D-02  E= 0.000000D+00
              MO Center=  0.0D+00,  0.0D+00,  1.9D-06, r^2= 2.2D+00
   Bfn.  Coefficient  Atom+Function         Bfn.  Coefficient  Atom+Function  
  ----- ------------  ---------------      ----- ------------  ---------------
     1      0.895990  1 H  s                  3      0.895992  2 H  s          
     2     -0.686052  1 H  s                  4     -0.686054  2 H  s          

 Vector    4  Occ=1.321757D-02  E= 0.000000D+00
              MO Center=  0.0D+00,  0.0D+00, -2.0D-06, r^2= 3.0D+00
   Bfn.  Coefficient  Atom+Function         Bfn.  Coefficient  Atom+Function  
  ----- ------------  ---------------      ----- ------------  ---------------
     2      0.951678  1 H  s                  4     -0.951677  2 H  s          
     1     -0.921516  1 H  s                  3      0.921515  2 H  s          


 Task  times  cpu:       11.5s     wall:       16.8s
 Summary of allocated global arrays
-----------------------------------
  No active global arrays



                         GA Statistics for process    0
                         ------------------------------

       create   destroy   get      put      acc     scatter   gather  read&inc
calls:   44       44     6.58e+06 1.39e+04 1.81e+04    0        0       11     
number of processes/call 1.00e+00 1.00e+00 1.00e+00 0.00e+00 0.00e+00
bytes total:             8.46e+08 2.31e+06 2.88e+06 0.00e+00 0.00e+00 8.80e+01
bytes remote:            0.00e+00 0.00e+00 0.00e+00 0.00e+00 0.00e+00 0.00e+00
Max memory consumed for GA by this process: 10624 bytes
MA_summarize_allocated_blocks: starting scan ...
MA_summarize_allocated_blocks: scan completed: 0 heap blocks, 0 stack blocks
MA usage statistics:

	allocation statistics:
					      heap	     stack
					      ----	     -----
	current number of blocks	         0	         0
	maximum number of blocks	        19	        17
	current total bytes		         0	         0
	maximum total bytes		   3204328	  22508616
	maximum total K-bytes		      3205	     22509
	maximum total M-bytes		         4	        23


                                NWChem Input Module
                                -------------------





                                     CITATION
                                     --------
                Please cite the following reference when publishing
                           results obtained with NWChem:

                 M. Valiev, E.J. Bylaska, N. Govind, K. Kowalski,
              T.P. Straatsma, H.J.J. van Dam, D. Wang, J. Nieplocha,
                        E. Apra, T.L. Windus, W.A. de Jong
                 "NWChem: a comprehensive and scalable open-source
                  solution for large scale molecular simulations"
                      Comput. Phys. Commun. 181, 1477 (2010)
                           doi:10.1016/j.cpc.2010.04.018

                                      AUTHORS
                                      -------
          E. Apra, E. J. Bylaska, W. A. de Jong, N. Govind, K. Kowalski,
       T. P. Straatsma, M. Valiev, H. J. J. van Dam, D. Wang, T. L. Windus,
        J. Hammond, J. Autschbach, K. Bhaskaran-Nair, J. Brabec, K. Lopata,
    S. A. Fischer, S. Krishnamoorthy, M. Jacquelin, W. Ma, M. Klemm, O. Villa,
      Y. Chen, V. Anisimov, F. Aquino, S. Hirata, M. T. Hackler, V. Konjkov,
      T. Risthaus, M. Malagoli, A. Marenich, A. Otero-de-la-Roza, J. Mullin,
        P. Nichols, R. Peverati, J. Pittner, Y. Zhao, P.-D. Fan, A. Fonari,
       M. Williamson, R. J. Harrison, J. R. Rehr, M. Dupuis, D. Silverstein,
    D. M. A. Smith, J. Nieplocha, V. Tipparaju, M. Krishnan, B. E. Van Kuiken,
        A. Vazquez-Mayagoitia, L. Jensen, M. Swart, Q. Wu, T. Van Voorhis,
     A. A. Auer, M. Nooijen, L. D. Crosby, E. Brown, G. Cisneros, G. I. Fann,
   H. Fruchtl, J. Garza, K. Hirao, R. A. Kendall, J. A. Nichols, K. Tsemekhman,
    K. Wolinski, J. Anchell, D. E. Bernholdt, P. Borowski, T. Clark, D. Clerc,
   H. Dachsel, M. J. O. Deegan, K. Dyall, D. Elwood, E. Glendening, M. Gutowski,
   A. C. Hess, J. Jaffe, B. G. Johnson, J. Ju, R. Kobayashi, R. Kutteh, Z. Lin,
   R. Littlefield, X. Long, B. Meng, T. Nakajima, S. Niu, L. Pollack, M. Rosing,
   K. Glaesemann, G. Sandrone, M. Stave, H. Taylor, G. Thomas, J. H. van Lenthe,
                               A. T. Wong, Z. Zhang.

 Total times  cpu:       11.5s     wall:       16.8s
