 argument  1 = input-wf.nw



============================== echo of input deck ==============================
echo
start wfn1_dat
geometry units au noautoz
  H 0 0 -5.04434600000000000000
  H 0 0  5.04434600000000000000
  symmetry cs
end
basis
  H library 6-31g
end
set wfn1:input_vectors "atomic"
set wfn1:solver "monte-carlo"
set wfn1:print_error F
set wfn1:t_initial 0.1
#set wfn1:corr_expr "wfn1_mx"
set wfn1:corr_expr "wfn1c"
set wfn1:t_bath 0.0
set wfn1:maxit  20000
task wfn1 energy
================================================================================


                                         
                                         


              Northwest Computational Chemistry Package (NWChem) 6.8
              ------------------------------------------------------


                    Environmental Molecular Sciences Laboratory
                       Pacific Northwest National Laboratory
                                Richland, WA 99352

                              Copyright (c) 1994-2015
                       Pacific Northwest National Laboratory
                            Battelle Memorial Institute

             NWChem is an open-source computational chemistry package
                        distributed under the terms of the
                      Educational Community License (ECL) 2.0
             A copy of the license is included with this distribution
                              in the LICENSE.TXT file

                                  ACKNOWLEDGMENT
                                  --------------

            This software and its documentation were developed at the
            EMSL at Pacific Northwest National Laboratory, a multiprogram
            national laboratory, operated for the U.S. Department of Energy
            by Battelle under Contract Number DE-AC05-76RL01830. Support
            for this work was provided by the Department of Energy Office
            of Biological and Environmental Research, Office of Basic
            Energy Sciences, and the Office of Advanced Scientific Computing.


           Job information
           ---------------

    hostname        = erato
    program         = ../../../bin/LINUX64/nwchem
    date            = Mon Mar  1 01:53:55 2021

    compiled        = Sun_Feb_28_18:02:42_2021
    source          = /home/hvandam/nwchem-1-wfn1
    nwchem branch   = Development
    nwchem revision = nwchem_on_git-124-gad72d19fff205e319ffbbf2bca37a04ded6ad57b
    ga revision     = nwchem_on_git-124-gad72d19
    use scalapack   = F
    input           = input-wf.nw
    prefix          = wfn1_dat.
    data base       = ./wfn1_dat.db
    status          = startup
    nproc           =        1
    time left       =     -1s



           Memory information
           ------------------

    heap     =   13107198 doubles =    100.0 Mbytes
    stack    =   13107195 doubles =    100.0 Mbytes
    global   =   26214400 doubles =    200.0 Mbytes (distinct from heap & stack)
    total    =   52428793 doubles =    400.0 Mbytes
    verify   = yes
    hardfail = no 


           Directory information
           ---------------------

  0 permanent = .
  0 scratch   = .




                                NWChem Input Module
                                -------------------


 Turning off AUTOSYM since
 SYMMETRY directive was detected!



                             Geometry "geometry" -> ""
                             -------------------------

 Output coordinates in a.u. (scale by  1.000000000 to convert to a.u.)

  No.       Tag          Charge          X              Y              Z
 ---- ---------------- ---------- -------------- -------------- --------------
    1 H                    1.0000     0.00000000     0.00000000    -5.04434600
    2 H                    1.0000     0.00000000     0.00000000     5.04434600

      Atomic Mass 
      ----------- 

      H                  1.007825


 Effective nuclear repulsion energy (a.u.)       0.0991208771

            Nuclear Dipole moment (a.u.) 
            ----------------------------
        X                 Y               Z
 ---------------- ---------------- ----------------
     0.0000000000     0.0000000000     0.0000000000

      Symmetry information
      --------------------

 Group name             Cs        
 Group number              2
 Group order               2
 No. of unique centers     1

      Symmetry unique atoms

     1


            XYZ format geometry
            -------------------
     2
 geometry
 H                     0.00000000     0.00000000    -2.66935314
 H                     0.00000000     0.00000000     2.66935314

                      Basis "ao basis" -> "" (cartesian)
                      -----
  H (Hydrogen)
  ------------
            Exponent  Coefficients 
       -------------- ---------------------------------------------------------
  1 S  1.87311370E+01  0.033495
  1 S  2.82539370E+00  0.234727
  1 S  6.40121700E-01  0.813757

  2 S  1.61277800E-01  1.000000



 Summary of "ao basis" -> "" (cartesian)
 ------------------------------------------------------------------------------
       Tag                 Description            Shells   Functions and Types
 ---------------- ------------------------------  ------  ---------------------
 H                           6-31g                   2        2   2s



                                NWChem WFN1 Module
                                ------------------



          No. of electrons :     2
           Alpha electrons :     1
            Beta electrons :     1
          Charge           :     0
          Spin multiplicity:     1

 HvD: wfn1_inpdft
 HvD: nquad_task =                     1
 HvD: iangquad   =                     0
 HvD: gridtype   = user      
 HvD: leb        =  T
 HvD: radgrid    = murakn    
 HvD: trunc_neigh=  T
 HvD: lssw       =  T
 HvD: whichssw   = erf1    
 HvD: mxnrad     =                     0
 HvD: mxnang     =                     0
 HVD: wfn1: movecs_in  = atomic                                                                                                                                                                                                                                                          
 HVD: wfn1: movecs_out = ./wfn1_dat.movecs                                                                                                                                                                                                                                               

      Superposition of Atomic Density Guess
      -------------------------------------

 Sum of atomic energies:          -0.99646508

      Non-variational initial energy
      ------------------------------

 Total energy =      -0.682110
 1-e energy   =      -1.194708
 2-e energy   =       0.413477
 HOMO         =      -0.191353
 LUMO         =      -0.191019

 iteration              energy           error
 ---------              ------           -----
         0         -0.86777749        0.080000
         1         -0.87486588        0.080000
         2         -0.88068228        0.080000
         3         -0.88642204        0.080000
         4         -0.88969722        0.080000
         5         -0.89381673        0.080000
         6         -0.89849815        0.080000
         7         -0.89932037        0.080000
         8         -0.90116631        0.080000
         9         -0.90204056        0.080000
        10         -0.90209974        0.080000
        11         -0.90354632        0.080000
        12         -0.90588386        0.080000
        13         -0.90875171        0.080000
        14         -0.91033813        0.080000
        15         -0.91473644        0.080000
        16         -0.91560725        0.080000
        17         -0.91641069        0.080000
        18         -0.91661193        0.080000
        19         -0.91694754        0.080000
        20         -0.91995333        0.080000
        21         -0.92188305        0.080000
        22         -0.92357712        0.080000
        23         -0.92541351        0.080000
        24         -0.92626232        0.080000
        25         -0.92767832        0.080000
        26         -0.92868377        0.080000
        27         -0.92937503        0.080000
        28         -0.92964116        0.080000
        29         -0.93013977        0.080000
        30         -0.93074500        0.080000
        31         -0.93113773        0.080000
        32         -0.93124721        0.080000
        33         -0.93146224        0.080000
        34         -0.93171755        0.080000
        35         -0.93178319        0.080000
        36         -0.93180977        0.080000
        37         -0.93190535        0.080000
        38         -0.93193828        0.080000
        39         -0.93199803        0.063496
        40         -0.93202405        0.050397
        41         -0.93202546        0.031748
        42         -0.93202808        0.031748
        43         -0.93204530        0.031748
        44         -0.93206055        0.025198
        45         -0.93206058        0.020000
        46         -0.93206206        0.020000
        47         -0.93206295        0.020000
        48         -0.93206319        0.020000
        49         -0.93206365        0.020000
        50         -0.93206372        0.020000
        51         -0.93206530        0.010000
        52         -0.93206605        0.007937
        53         -0.93206616        0.007937
        54         -0.93206668        0.007937
        55         -0.93206708        0.007937
        56         -0.93206717        0.007937
        57         -0.93206742        0.007937
        58         -0.93206749        0.006300
        59         -0.93206755        0.002500
        60         -0.93206775        0.002500
        61         -0.93206779        0.002500
        62         -0.93206788        0.002500
        63         -0.93206794        0.002500
        64         -0.93206795        0.002500
        65         -0.93206795        0.002500
        66         -0.93206796        0.002500
        67         -0.93206800        0.001984
        68         -0.93206801        0.001575
        69         -0.93206804        0.001575
        70         -0.93206807        0.001250
        71         -0.93206808        0.001250
        72         -0.93206808        0.001250
        73         -0.93206809        0.000787
        74         -0.93206810        0.000496
        75         -0.93206810        0.000394
        76         -0.93206810        0.000394
        77         -0.93206810        0.000394
        78         -0.93206811        0.000313
        79         -0.93206811        0.000313
        80         -0.93206811        0.000313
        81         -0.93206811        0.000248
        82         -0.93206811        0.000248
        83         -0.93206811        0.000248
        84         -0.93206811        0.000248
        85         -0.93206811        0.000248
        86         -0.93206811        0.000248
        87         -0.93206811        0.000248
        88         -0.93206811        0.000197
        89         -0.93206811        0.000197
        90         -0.93206811        0.000124
        91         -0.93206811        0.000124
        92         -0.93206811        0.000098
        93         -0.93206811        0.000078
        94         -0.93206811        0.000078
        95         -0.93206811        0.000078
        96         -0.93206811        0.000078
        97         -0.93206811        0.000078
        98         -0.93206812        0.000078
        99         -0.93206812        0.000078
       100         -0.93206812        0.000078
       101         -0.93206812        0.000078
       102         -0.93206812        0.000078
       103         -0.93206812        0.000078
       104         -0.93206812        0.000078
       105         -0.93206812        0.000078
       106         -0.93206812        0.000062
       107         -0.93206812        0.000062
       108         -0.93206812        0.000062
       109         -0.93206812        0.000062
       110         -0.93206812        0.000062
       111         -0.93206812        0.000062
       112         -0.93206812        0.000062
       113         -0.93206812        0.000062
       114         -0.93206812        0.000062
       115         -0.93206812        0.000062
       116         -0.93206812        0.000039
       117         -0.93206812        0.000039
       118         -0.93206812        0.000039
       119         -0.93206812        0.000039
       120         -0.93206812        0.000039
       121         -0.93206812        0.000031
       122         -0.93206812        0.000025
       123         -0.93206812        0.000025
       124         -0.93206812        0.000025
       125         -0.93206812        0.000016
       126         -0.93206812        0.000012
       127         -0.93206812        0.000012
       128         -0.93206812        0.000012
       129         -0.93206812        0.000010
       130         -0.93206812        0.000010
       131         -0.93206812        0.000010
       132         -0.93206812        0.000010
       133         -0.93206812        0.000005
       134         -0.93206812        0.000005
       135         -0.93206812        0.000005
       136         -0.93206812        0.000005
       137         -0.93206812        0.000005
       138         -0.93206812        0.000004
       139         -0.93206812        0.000004
       140         -0.93206812        0.000004
       141         -0.93206812        0.000003
       142         -0.93206812        0.000002
       143         -0.93206812        0.000002
       144         -0.93206812        0.000002
       145         -0.93206812        0.000002
       146         -0.93206812        0.000002
       147         -0.93206812        0.000002
       148         -0.93206812        0.000002
       149         -0.93206812        0.000001
       150         -0.93206812        0.000001
       151         -0.93206812        0.000001
       152         -0.93206812        0.000001
       153         -0.93206812        0.000001

 Reached Convergence

 WFN1                     :
 --------------------------
 Total WFN1 energy  =          -0.9320681159
 1-Electron energy  =          -1.1281530735
 2-Electron energy  =           0.3452234204
 Correlation energy =          -0.2482593399
 DFT XC energy      =           0.0000000000
 Entropy energy     =           0.0000000000
 Nuclear energy     =           0.0991208771

 conventional Hartree-Fock:
 --------------------------
 Total SCF energy  =          -0.8684247804
 2-Electron energy =           0.4088667559

                WFN1 Final Natural orbital energies and occupations
                ---------------------------------------------------

              Alpha       Beta            Alpha       Beta  
            --------    --------        --------    --------
       1      0.0000      0.0000          0.4848      0.4848
       2      0.0000      0.0000          0.4832      0.4832
       3      0.0000      0.0000          0.0160      0.0160
       4      0.0000      0.0000          0.0160      0.0160

             WFN1 Final Correlation function energies and occupations
             --------------------------------------------------------

              Alpha       Beta            Alpha       Beta  
            --------    --------        --------    --------
       1      0.0000      0.0000          1.0000      1.0000
       2      0.0000      0.0000          0.0000      0.0000
       3      0.0000      0.0000          0.0000      0.0000
       4      0.0000      0.0000          0.0000      0.0000

                WFN1 Final alpha-alpha 2-matrix occupation numbers
                --------------------------------------------------


 global array: g_momo1[1:4,1:4],  handle: -990 

            1           2           3           4  
       ----------- ----------- ----------- -----------
   1       0.00000     0.00000     0.00000     0.00000
   2       0.00000     0.00000    -0.00000     0.00000
   3       0.00000     0.00000    -0.00000    -0.00000
   4       0.00000     0.00000    -0.00000     0.00000

                 WFN1 Final beta-beta 2-matrix occupation numbers
                 ------------------------------------------------


 global array: g_momo2[1:4,1:4],  handle: -989 

            1           2           3           4  
       ----------- ----------- ----------- -----------
   1       0.00000     0.00000     0.00000     0.00000
   2       0.00000     0.00000    -0.00000     0.00000
   3       0.00000     0.00000    -0.00000    -0.00000
   4       0.00000     0.00000    -0.00000     0.00000

                  WFN1 Final alpha Correlation Function Analysis
                  ----------------------------------------------


 global array: Ca[1:4,1:4],  handle: -977 

                     1                       2                       3                       4  
       ----------------------- ----------------------- ----------------------- -----------------------
   1       0.37834,   -0.58454     0.38419,   -0.59211    -0.11110,    0.06177     0.02872,    0.00007
   2      -0.62391,   -0.30654     0.63391,    0.31340     0.07438,    0.09189     0.05153,   -0.00940
   3       0.12609,   -0.00992    -0.02489,   -0.01211     0.69292,    0.09503     0.69590,    0.09899
   4      -0.12557,   -0.01376    -0.02246,   -0.02185    -0.47223,   -0.50764     0.48774,    0.51426

                   WFN1 Final beta Correlation Function Analysis
                   ---------------------------------------------


 global array: Cb[1:4,1:4],  handle: -976 

                     1                       2                       3                       4  
       ----------------------- ----------------------- ----------------------- -----------------------
   1       0.37834,   -0.58454     0.38419,   -0.59211    -0.11110,    0.06177     0.02872,    0.00007
   2      -0.62391,   -0.30654     0.63391,    0.31340     0.07438,    0.09189     0.05153,   -0.00940
   3       0.12609,   -0.00992    -0.02489,   -0.01211     0.69292,    0.09503     0.69590,    0.09899
   4      -0.12557,   -0.01376    -0.02246,   -0.02185    -0.47223,   -0.50764     0.48774,    0.51426

                     WFN1 Final Alpha Natural Orbital Analysis
                     -----------------------------------------

 Vector    1  Occ=4.848201D-01  E= 0.000000D+00
              MO Center=  0.0D+00,  0.0D+00, -7.6D-07, r^2= 8.0D+00
   Bfn.  Coefficient  Atom+Function         Bfn.  Coefficient  Atom+Function  
  ----- ------------  ---------------      ----- ------------  ---------------
     2     -0.514012  1 H  s                  4     -0.514012  2 H  s          
     1     -0.253419  1 H  s                  3     -0.253419  2 H  s          

 Vector    2  Occ=4.832247D-01  E= 0.000000D+00
              MO Center=  0.0D+00,  0.0D+00,  7.6D-07, r^2= 8.0D+00
   Bfn.  Coefficient  Atom+Function         Bfn.  Coefficient  Atom+Function  
  ----- ------------  ---------------      ----- ------------  ---------------
     2      0.513650  1 H  s                  4     -0.513650  2 H  s          
     1      0.253957  1 H  s                  3     -0.253957  2 H  s          

 Vector    3  Occ=1.599795D-02  E= 0.000000D+00
              MO Center=  0.0D+00,  0.0D+00,  1.5D-06, r^2= 8.2D+00
   Bfn.  Coefficient  Atom+Function         Bfn.  Coefficient  Atom+Function  
  ----- ------------  ---------------      ----- ------------  ---------------
     1     -0.904419  1 H  s                  3     -0.904419  2 H  s          
     2      0.785968  1 H  s                  4      0.785969  2 H  s          

 Vector    4  Occ=1.595729D-02  E= 0.000000D+00
              MO Center=  0.0D+00,  0.0D+00, -1.5D-06, r^2= 8.3D+00
   Bfn.  Coefficient  Atom+Function         Bfn.  Coefficient  Atom+Function  
  ----- ------------  ---------------      ----- ------------  ---------------
     1     -0.904469  1 H  s                  3      0.904469  2 H  s          
     2      0.786742  1 H  s                  4     -0.786741  2 H  s          


                     WFN1 Final Beta Natural Orbital Analysis
                     ----------------------------------------

 Vector    1  Occ=4.848201D-01  E= 0.000000D+00
              MO Center=  0.0D+00,  0.0D+00, -7.6D-07, r^2= 8.0D+00
   Bfn.  Coefficient  Atom+Function         Bfn.  Coefficient  Atom+Function  
  ----- ------------  ---------------      ----- ------------  ---------------
     2     -0.514012  1 H  s                  4     -0.514012  2 H  s          
     1     -0.253419  1 H  s                  3     -0.253419  2 H  s          

 Vector    2  Occ=4.832247D-01  E= 0.000000D+00
              MO Center=  0.0D+00,  0.0D+00,  7.6D-07, r^2= 8.0D+00
   Bfn.  Coefficient  Atom+Function         Bfn.  Coefficient  Atom+Function  
  ----- ------------  ---------------      ----- ------------  ---------------
     2      0.513650  1 H  s                  4     -0.513650  2 H  s          
     1      0.253957  1 H  s                  3     -0.253957  2 H  s          

 Vector    3  Occ=1.599795D-02  E= 0.000000D+00
              MO Center=  0.0D+00,  0.0D+00,  1.5D-06, r^2= 8.2D+00
   Bfn.  Coefficient  Atom+Function         Bfn.  Coefficient  Atom+Function  
  ----- ------------  ---------------      ----- ------------  ---------------
     1     -0.904419  1 H  s                  3     -0.904419  2 H  s          
     2      0.785968  1 H  s                  4      0.785969  2 H  s          

 Vector    4  Occ=1.595729D-02  E= 0.000000D+00
              MO Center=  0.0D+00,  0.0D+00, -1.5D-06, r^2= 8.3D+00
   Bfn.  Coefficient  Atom+Function         Bfn.  Coefficient  Atom+Function  
  ----- ------------  ---------------      ----- ------------  ---------------
     1     -0.904469  1 H  s                  3      0.904469  2 H  s          
     2      0.786742  1 H  s                  4     -0.786741  2 H  s          


 Task  times  cpu:       10.7s     wall:       16.7s
 Summary of allocated global arrays
-----------------------------------
  No active global arrays



                         GA Statistics for process    0
                         ------------------------------

       create   destroy   get      put      acc     scatter   gather  read&inc
calls:   44       44     6.07e+06 1.28e+04 1.67e+04    0        0       10     
number of processes/call 1.00e+00 1.00e+00 1.00e+00 0.00e+00 0.00e+00
bytes total:             7.80e+08 2.13e+06 2.65e+06 0.00e+00 0.00e+00 8.00e+01
bytes remote:            0.00e+00 0.00e+00 0.00e+00 0.00e+00 0.00e+00 0.00e+00
Max memory consumed for GA by this process: 10624 bytes
MA_summarize_allocated_blocks: starting scan ...
MA_summarize_allocated_blocks: scan completed: 0 heap blocks, 0 stack blocks
MA usage statistics:

	allocation statistics:
					      heap	     stack
					      ----	     -----
	current number of blocks	         0	         0
	maximum number of blocks	        19	        17
	current total bytes		         0	         0
	maximum total bytes		   3204344	  22508664
	maximum total K-bytes		      3205	     22509
	maximum total M-bytes		         4	        23


                                NWChem Input Module
                                -------------------





                                     CITATION
                                     --------
                Please cite the following reference when publishing
                           results obtained with NWChem:

                 M. Valiev, E.J. Bylaska, N. Govind, K. Kowalski,
              T.P. Straatsma, H.J.J. van Dam, D. Wang, J. Nieplocha,
                        E. Apra, T.L. Windus, W.A. de Jong
                 "NWChem: a comprehensive and scalable open-source
                  solution for large scale molecular simulations"
                      Comput. Phys. Commun. 181, 1477 (2010)
                           doi:10.1016/j.cpc.2010.04.018

                                      AUTHORS
                                      -------
          E. Apra, E. J. Bylaska, W. A. de Jong, N. Govind, K. Kowalski,
       T. P. Straatsma, M. Valiev, H. J. J. van Dam, D. Wang, T. L. Windus,
        J. Hammond, J. Autschbach, K. Bhaskaran-Nair, J. Brabec, K. Lopata,
    S. A. Fischer, S. Krishnamoorthy, M. Jacquelin, W. Ma, M. Klemm, O. Villa,
      Y. Chen, V. Anisimov, F. Aquino, S. Hirata, M. T. Hackler, V. Konjkov,
      T. Risthaus, M. Malagoli, A. Marenich, A. Otero-de-la-Roza, J. Mullin,
        P. Nichols, R. Peverati, J. Pittner, Y. Zhao, P.-D. Fan, A. Fonari,
       M. Williamson, R. J. Harrison, J. R. Rehr, M. Dupuis, D. Silverstein,
    D. M. A. Smith, J. Nieplocha, V. Tipparaju, M. Krishnan, B. E. Van Kuiken,
        A. Vazquez-Mayagoitia, L. Jensen, M. Swart, Q. Wu, T. Van Voorhis,
     A. A. Auer, M. Nooijen, L. D. Crosby, E. Brown, G. Cisneros, G. I. Fann,
   H. Fruchtl, J. Garza, K. Hirao, R. A. Kendall, J. A. Nichols, K. Tsemekhman,
    K. Wolinski, J. Anchell, D. E. Bernholdt, P. Borowski, T. Clark, D. Clerc,
   H. Dachsel, M. J. O. Deegan, K. Dyall, D. Elwood, E. Glendening, M. Gutowski,
   A. C. Hess, J. Jaffe, B. G. Johnson, J. Ju, R. Kobayashi, R. Kutteh, Z. Lin,
   R. Littlefield, X. Long, B. Meng, T. Nakajima, S. Niu, L. Pollack, M. Rosing,
   K. Glaesemann, G. Sandrone, M. Stave, H. Taylor, G. Thomas, J. H. van Lenthe,
                               A. T. Wong, Z. Zhang.

 Total times  cpu:       10.7s     wall:       16.7s
