 argument  1 = input-wf.nw



============================== echo of input deck ==============================
echo
start wfn1_dat
geometry units au noautoz
  H 0 0 -3.19434600000000000000
  H 0 0  3.19434600000000000000
  symmetry cs
end
basis
  H library 6-31g
end
set wfn1:input_vectors "atomic"
set wfn1:solver "monte-carlo"
set wfn1:print_error F
set wfn1:t_initial 0.1
#set wfn1:corr_expr "wfn1_mx"
set wfn1:corr_expr "wfn1c"
set wfn1:t_bath 0.0
set wfn1:maxit  20000
task wfn1 energy
================================================================================


                                         
                                         


              Northwest Computational Chemistry Package (NWChem) 6.8
              ------------------------------------------------------


                    Environmental Molecular Sciences Laboratory
                       Pacific Northwest National Laboratory
                                Richland, WA 99352

                              Copyright (c) 1994-2015
                       Pacific Northwest National Laboratory
                            Battelle Memorial Institute

             NWChem is an open-source computational chemistry package
                        distributed under the terms of the
                      Educational Community License (ECL) 2.0
             A copy of the license is included with this distribution
                              in the LICENSE.TXT file

                                  ACKNOWLEDGMENT
                                  --------------

            This software and its documentation were developed at the
            EMSL at Pacific Northwest National Laboratory, a multiprogram
            national laboratory, operated for the U.S. Department of Energy
            by Battelle under Contract Number DE-AC05-76RL01830. Support
            for this work was provided by the Department of Energy Office
            of Biological and Environmental Research, Office of Basic
            Energy Sciences, and the Office of Advanced Scientific Computing.


           Job information
           ---------------

    hostname        = erato
    program         = ../../../bin/LINUX64/nwchem
    date            = Mon Mar  1 01:45:04 2021

    compiled        = Sun_Feb_28_18:02:42_2021
    source          = /home/hvandam/nwchem-1-wfn1
    nwchem branch   = Development
    nwchem revision = nwchem_on_git-124-gad72d19fff205e319ffbbf2bca37a04ded6ad57b
    ga revision     = nwchem_on_git-124-gad72d19
    use scalapack   = F
    input           = input-wf.nw
    prefix          = wfn1_dat.
    data base       = ./wfn1_dat.db
    status          = startup
    nproc           =        1
    time left       =     -1s



           Memory information
           ------------------

    heap     =   13107200 doubles =    100.0 Mbytes
    stack    =   13107197 doubles =    100.0 Mbytes
    global   =   26214400 doubles =    200.0 Mbytes (distinct from heap & stack)
    total    =   52428797 doubles =    400.0 Mbytes
    verify   = yes
    hardfail = no 


           Directory information
           ---------------------

  0 permanent = .
  0 scratch   = .




                                NWChem Input Module
                                -------------------


 Turning off AUTOSYM since
 SYMMETRY directive was detected!



                             Geometry "geometry" -> ""
                             -------------------------

 Output coordinates in a.u. (scale by  1.000000000 to convert to a.u.)

  No.       Tag          Charge          X              Y              Z
 ---- ---------------- ---------- -------------- -------------- --------------
    1 H                    1.0000     0.00000000     0.00000000    -3.19434600
    2 H                    1.0000     0.00000000     0.00000000     3.19434600

      Atomic Mass 
      ----------- 

      H                  1.007825


 Effective nuclear repulsion energy (a.u.)       0.1565265629

            Nuclear Dipole moment (a.u.) 
            ----------------------------
        X                 Y               Z
 ---------------- ---------------- ----------------
     0.0000000000     0.0000000000     0.0000000000

      Symmetry information
      --------------------

 Group name             Cs        
 Group number              2
 Group order               2
 No. of unique centers     1

      Symmetry unique atoms

     1


            XYZ format geometry
            -------------------
     2
 geometry
 H                     0.00000000     0.00000000    -1.69037523
 H                     0.00000000     0.00000000     1.69037523

                      Basis "ao basis" -> "" (cartesian)
                      -----
  H (Hydrogen)
  ------------
            Exponent  Coefficients 
       -------------- ---------------------------------------------------------
  1 S  1.87311370E+01  0.033495
  1 S  2.82539370E+00  0.234727
  1 S  6.40121700E-01  0.813757

  2 S  1.61277800E-01  1.000000



 Summary of "ao basis" -> "" (cartesian)
 ------------------------------------------------------------------------------
       Tag                 Description            Shells   Functions and Types
 ---------------- ------------------------------  ------  ---------------------
 H                           6-31g                   2        2   2s



                                NWChem WFN1 Module
                                ------------------



          No. of electrons :     2
           Alpha electrons :     1
            Beta electrons :     1
          Charge           :     0
          Spin multiplicity:     1

 HvD: wfn1_inpdft
 HvD: nquad_task =                     1
 HvD: iangquad   =                     0
 HvD: gridtype   = user      
 HvD: leb        =  T
 HvD: radgrid    = murakn    
 HvD: trunc_neigh=  T
 HvD: lssw       =  T
 HvD: whichssw   = erf1    
 HvD: mxnrad     =                     0
 HvD: mxnang     =                     0
 HVD: wfn1: movecs_in  = atomic                                                                                                                                                                                                                                                          
 HVD: wfn1: movecs_out = ./wfn1_dat.movecs                                                                                                                                                                                                                                               

      Superposition of Atomic Density Guess
      -------------------------------------

 Sum of atomic energies:          -0.99646508

      Non-variational initial energy
      ------------------------------

 Total energy =      -0.682194
 1-e energy   =      -1.309519
 2-e energy   =       0.470798
 HOMO         =      -0.201398
 LUMO         =      -0.180766

 iteration              energy           error
 ---------              ------           -----
         0         -0.88316000        0.080000
         1         -0.88973060        0.080000
         2         -0.89550140        0.080000
         3         -0.89552099        0.080000
         4         -0.89817476        0.080000
         5         -0.90057553        0.080000
         6         -0.90402268        0.080000
         7         -0.90827564        0.080000
         8         -0.91208331        0.080000
         9         -0.91485555        0.080000
        10         -0.91731912        0.080000
        11         -0.91812587        0.080000
        12         -0.92126668        0.080000
        13         -0.92303779        0.080000
        14         -0.92436070        0.080000
        15         -0.92688910        0.080000
        16         -0.92722571        0.080000
        17         -0.92743098        0.080000
        18         -0.93084556        0.080000
        19         -0.93227112        0.080000
        20         -0.93233496        0.080000
        21         -0.93343499        0.080000
        22         -0.93363871        0.080000
        23         -0.93371478        0.080000
        24         -0.93503002        0.080000
        25         -0.93728927        0.080000
        26         -0.93914925        0.080000
        27         -0.94110380        0.080000
        28         -0.94202220        0.080000
        29         -0.94205952        0.080000
        30         -0.94244108        0.080000
        31         -0.94302273        0.080000
        32         -0.94352414        0.080000
        33         -0.94457837        0.080000
        34         -0.94522737        0.080000
        35         -0.94525757        0.080000
        36         -0.94633600        0.080000
        37         -0.94640678        0.080000
        38         -0.94677307        0.080000
        39         -0.94707094        0.080000
        40         -0.94708791        0.080000
        41         -0.94709038        0.080000
        42         -0.94711168        0.080000
        43         -0.94805576        0.080000
        44         -0.94883809        0.080000
        45         -0.94889316        0.080000
        46         -0.94892024        0.080000
        47         -0.94893659        0.080000
        48         -0.94972111        0.080000
        49         -0.94998160        0.080000
        50         -0.95028245        0.080000
        51         -0.95037902        0.080000
        52         -0.95038981        0.080000
        53         -0.95040349        0.080000
        54         -0.95046619        0.080000
        55         -0.95048591        0.050397
        56         -0.95049441        0.050397
        57         -0.95050421        0.040000
        58         -0.95051523        0.031748
        59         -0.95053169        0.031748
        60         -0.95054031        0.031748
        61         -0.95055228        0.025198
        62         -0.95055847        0.025198
        63         -0.95055895        0.025198
        64         -0.95055904        0.020000
        65         -0.95056001        0.020000
        66         -0.95056782        0.015874
        67         -0.95057013        0.015874
        68         -0.95057139        0.015874
        69         -0.95057269        0.015874
        70         -0.95057325        0.015874
        71         -0.95057654        0.015874
        72         -0.95057842        0.015874
        73         -0.95058328        0.015874
        74         -0.95058423        0.015874
        75         -0.95058536        0.015874
        76         -0.95058785        0.012599
        77         -0.95058825        0.012599
        78         -0.95058849        0.010000
        79         -0.95058889        0.010000
        80         -0.95058893        0.010000
        81         -0.95058960        0.007937
        82         -0.95058975        0.006300
        83         -0.95058982        0.006300
        84         -0.95059015        0.006300
        85         -0.95059030        0.005000
        86         -0.95059067        0.005000
        87         -0.95059068        0.005000
        88         -0.95059070        0.003150
        89         -0.95059076        0.003150
        90         -0.95059077        0.003150
        91         -0.95059078        0.001984
        92         -0.95059080        0.001984
        93         -0.95059080        0.001984
        94         -0.95059083        0.001984
        95         -0.95059084        0.001250
        96         -0.95059084        0.000787
        97         -0.95059084        0.000787
        98         -0.95059085        0.000625
        99         -0.95059085        0.000625
       100         -0.95059086        0.000625
       101         -0.95059086        0.000496
       102         -0.95059087        0.000394
       103         -0.95059087        0.000394
       104         -0.95059087        0.000394
       105         -0.95059087        0.000313
       106         -0.95059087        0.000313
       107         -0.95059087        0.000313
       108         -0.95059087        0.000197
       109         -0.95059087        0.000197
       110         -0.95059087        0.000197
       111         -0.95059087        0.000197
       112         -0.95059087        0.000197
       113         -0.95059087        0.000197
       114         -0.95059087        0.000156
       115         -0.95059087        0.000098
       116         -0.95059087        0.000098
       117         -0.95059087        0.000078
       118         -0.95059087        0.000078
       119         -0.95059087        0.000078
       120         -0.95059087        0.000078
       121         -0.95059087        0.000078
       122         -0.95059087        0.000062
       123         -0.95059087        0.000062
       124         -0.95059087        0.000062
       125         -0.95059087        0.000062
       126         -0.95059087        0.000062
       127         -0.95059087        0.000062
       128         -0.95059087        0.000062
       129         -0.95059087        0.000062
       130         -0.95059087        0.000049
       131         -0.95059087        0.000049
       132         -0.95059087        0.000049
       133         -0.95059087        0.000049
       134         -0.95059087        0.000039
       135         -0.95059087        0.000031
       136         -0.95059087        0.000031
       137         -0.95059087        0.000025
       138         -0.95059087        0.000025
       139         -0.95059087        0.000016
       140         -0.95059087        0.000012
       141         -0.95059087        0.000012
       142         -0.95059087        0.000012
       143         -0.95059087        0.000012
       144         -0.95059087        0.000012
       145         -0.95059087        0.000010
       146         -0.95059087        0.000010
       147         -0.95059087        0.000010
       148         -0.95059087        0.000010
       149         -0.95059087        0.000008
       150         -0.95059087        0.000006
       151         -0.95059087        0.000006
       152         -0.95059087        0.000006
       153         -0.95059087        0.000006
       154         -0.95059087        0.000006
       155         -0.95059087        0.000006
       156         -0.95059087        0.000006
       157         -0.95059087        0.000006
       158         -0.95059087        0.000005
       159         -0.95059087        0.000005
       160         -0.95059087        0.000005
       161         -0.95059087        0.000005
       162         -0.95059087        0.000005
       163         -0.95059087        0.000003
       164         -0.95059087        0.000003
       165         -0.95059087        0.000002
       166         -0.95059087        0.000002
       167         -0.95059087        0.000002
       168         -0.95059087        0.000002
       169         -0.95059087        0.000002
       170         -0.95059087        0.000002
       171         -0.95059087        0.000002
       172         -0.95059087        0.000002
       173         -0.95059087        0.000002
       174         -0.95059087        0.000002
       175         -0.95059087        0.000002
       176         -0.95059087        0.000002
       177         -0.95059087        0.000002
       178         -0.95059087        0.000002
       179         -0.95059087        0.000002
       180         -0.95059087        0.000002
       181         -0.95059087        0.000002
       182         -0.95059087        0.000002
       183         -0.95059087        0.000002
       184         -0.95059087        0.000002
       185         -0.95059087        0.000001

 Reached Convergence

 WFN1                     :
 --------------------------
 Total WFN1 energy  =          -0.9505908712
 1-Electron energy  =          -1.2409714346
 2-Electron energy  =           0.3735341407
 Correlation energy =          -0.2396801401
 DFT XC energy      =           0.0000000000
 Entropy energy     =           0.0000000000
 Nuclear energy     =           0.1565265629

 conventional Hartree-Fock:
 --------------------------
 Total SCF energy  =          -0.8582073039
 2-Electron energy =           0.4659177079

                WFN1 Final Natural orbital energies and occupations
                ---------------------------------------------------

              Alpha       Beta            Alpha       Beta  
            --------    --------        --------    --------
       1      0.0000      0.0000          0.5281      0.5281
       2      0.0000      0.0000          0.4383      0.4383
       3      0.0000      0.0000          0.0180      0.0180
       4      0.0000      0.0000          0.0155      0.0155

             WFN1 Final Correlation function energies and occupations
             --------------------------------------------------------

              Alpha       Beta            Alpha       Beta  
            --------    --------        --------    --------
       1      0.0000      0.0000          1.0000      1.0000
       2      0.0000      0.0000          0.0000      0.0000
       3      0.0000      0.0000          0.0000      0.0000
       4      0.0000      0.0000          0.0000      0.0000

                WFN1 Final alpha-alpha 2-matrix occupation numbers
                --------------------------------------------------


 global array: g_momo1[1:4,1:4],  handle: -990 

            1           2           3           4  
       ----------- ----------- ----------- -----------
   1       0.00000     0.00000     0.00000     0.00000
   2      -0.00000     0.00000     0.00000    -0.00000
   3      -0.00000     0.00000     0.00000     0.00000
   4      -0.00000    -0.00000     0.00000    -0.00000

                 WFN1 Final beta-beta 2-matrix occupation numbers
                 ------------------------------------------------


 global array: g_momo2[1:4,1:4],  handle: -989 

            1           2           3           4  
       ----------- ----------- ----------- -----------
   1       0.00000     0.00000     0.00000     0.00000
   2      -0.00000     0.00000     0.00000    -0.00000
   3      -0.00000     0.00000     0.00000     0.00000
   4      -0.00000    -0.00000     0.00000    -0.00000

                  WFN1 Final alpha Correlation Function Analysis
                  ----------------------------------------------


 global array: Ca[1:4,1:4],  handle: -977 

                     1                       2                       3                       4  
       ----------------------- ----------------------- ----------------------- -----------------------
   1      -0.65192,   -0.32117    -0.61236,   -0.28988     0.01715,   -0.01570    -0.04187,    0.10267
   2      -0.52499,   -0.40340     0.58886,    0.43878     0.06308,   -0.01124    -0.07369,    0.11329
   3       0.05960,    0.12018    -0.02873,   -0.02343     0.82172,   -0.21242    -0.48825,    0.14799
   4       0.08420,   -0.09176    -0.01806,    0.00123     0.44182,    0.28250     0.73432,    0.41223

                   WFN1 Final beta Correlation Function Analysis
                   ---------------------------------------------


 global array: Cb[1:4,1:4],  handle: -976 

                     1                       2                       3                       4  
       ----------------------- ----------------------- ----------------------- -----------------------
   1      -0.65192,   -0.32117    -0.61236,   -0.28988     0.01715,   -0.01570    -0.04187,    0.10267
   2      -0.52499,   -0.40340     0.58886,    0.43878     0.06308,   -0.01124    -0.07369,    0.11329
   3       0.05960,    0.12018    -0.02873,   -0.02343     0.82172,   -0.21242    -0.48825,    0.14799
   4       0.08420,   -0.09176    -0.01806,    0.00123     0.44182,    0.28250     0.73432,    0.41223

                     WFN1 Final Alpha Natural Orbital Analysis
                     -----------------------------------------

 Vector    1  Occ=5.281478D-01  E= 0.000000D+00
              MO Center=  0.0D+00,  0.0D+00,  5.0D-07, r^2= 3.7D+00
   Bfn.  Coefficient  Atom+Function         Bfn.  Coefficient  Atom+Function  
  ----- ------------  ---------------      ----- ------------  ---------------
     2     -0.515923  1 H  s                  4     -0.515923  2 H  s          
     1     -0.242155  1 H  s                  3     -0.242155  2 H  s          

 Vector    2  Occ=4.383482D-01  E= 0.000000D+00
              MO Center=  0.0D+00,  0.0D+00, -5.0D-07, r^2= 3.8D+00
   Bfn.  Coefficient  Atom+Function         Bfn.  Coefficient  Atom+Function  
  ----- ------------  ---------------      ----- ------------  ---------------
     2      0.510870  1 H  s                  4     -0.510870  2 H  s          
     1      0.265934  1 H  s                  3     -0.265934  2 H  s          

 Vector    3  Occ=1.799515D-02  E= 0.000000D+00
              MO Center=  0.0D+00,  0.0D+00, -2.3D-06, r^2= 3.8D+00
   Bfn.  Coefficient  Atom+Function         Bfn.  Coefficient  Atom+Function  
  ----- ------------  ---------------      ----- ------------  ---------------
     1     -0.897887  1 H  s                  3     -0.897886  2 H  s          
     2      0.753420  1 H  s                  4      0.753419  2 H  s          

 Vector    4  Occ=1.550885D-02  E= 0.000000D+00
              MO Center=  0.0D+00,  0.0D+00,  2.3D-06, r^2= 4.2D+00
   Bfn.  Coefficient  Atom+Function         Bfn.  Coefficient  Atom+Function  
  ----- ------------  ---------------      ----- ------------  ---------------
     1     -0.911809  1 H  s                  3      0.911810  2 H  s          
     2      0.822185  1 H  s                  4     -0.822186  2 H  s          


                     WFN1 Final Beta Natural Orbital Analysis
                     ----------------------------------------

 Vector    1  Occ=5.281478D-01  E= 0.000000D+00
              MO Center=  0.0D+00,  0.0D+00,  5.0D-07, r^2= 3.7D+00
   Bfn.  Coefficient  Atom+Function         Bfn.  Coefficient  Atom+Function  
  ----- ------------  ---------------      ----- ------------  ---------------
     2     -0.515923  1 H  s                  4     -0.515923  2 H  s          
     1     -0.242155  1 H  s                  3     -0.242155  2 H  s          

 Vector    2  Occ=4.383482D-01  E= 0.000000D+00
              MO Center=  0.0D+00,  0.0D+00, -5.0D-07, r^2= 3.8D+00
   Bfn.  Coefficient  Atom+Function         Bfn.  Coefficient  Atom+Function  
  ----- ------------  ---------------      ----- ------------  ---------------
     2      0.510870  1 H  s                  4     -0.510870  2 H  s          
     1      0.265934  1 H  s                  3     -0.265934  2 H  s          

 Vector    3  Occ=1.799515D-02  E= 0.000000D+00
              MO Center=  0.0D+00,  0.0D+00, -2.3D-06, r^2= 3.8D+00
   Bfn.  Coefficient  Atom+Function         Bfn.  Coefficient  Atom+Function  
  ----- ------------  ---------------      ----- ------------  ---------------
     1     -0.897887  1 H  s                  3     -0.897886  2 H  s          
     2      0.753420  1 H  s                  4      0.753419  2 H  s          

 Vector    4  Occ=1.550885D-02  E= 0.000000D+00
              MO Center=  0.0D+00,  0.0D+00,  2.3D-06, r^2= 4.2D+00
   Bfn.  Coefficient  Atom+Function         Bfn.  Coefficient  Atom+Function  
  ----- ------------  ---------------      ----- ------------  ---------------
     1     -0.911809  1 H  s                  3      0.911810  2 H  s          
     2      0.822185  1 H  s                  4     -0.822186  2 H  s          


 Task  times  cpu:        8.5s     wall:       11.5s
 Summary of allocated global arrays
-----------------------------------
  No active global arrays



                         GA Statistics for process    0
                         ------------------------------

       create   destroy   get      put      acc     scatter   gather  read&inc
calls:   44       44     6.42e+06 1.35e+04 1.76e+04    0        0       11     
number of processes/call 1.00e+00 1.00e+00 1.00e+00 0.00e+00 0.00e+00
bytes total:             8.25e+08 2.25e+06 2.81e+06 0.00e+00 0.00e+00 8.80e+01
bytes remote:            0.00e+00 0.00e+00 0.00e+00 0.00e+00 0.00e+00 0.00e+00
Max memory consumed for GA by this process: 10624 bytes
MA_summarize_allocated_blocks: starting scan ...
MA_summarize_allocated_blocks: scan completed: 0 heap blocks, 0 stack blocks
MA usage statistics:

	allocation statistics:
					      heap	     stack
					      ----	     -----
	current number of blocks	         0	         0
	maximum number of blocks	        19	        17
	current total bytes		         0	         0
	maximum total bytes		   3204328	  22508616
	maximum total K-bytes		      3205	     22509
	maximum total M-bytes		         4	        23


                                NWChem Input Module
                                -------------------





                                     CITATION
                                     --------
                Please cite the following reference when publishing
                           results obtained with NWChem:

                 M. Valiev, E.J. Bylaska, N. Govind, K. Kowalski,
              T.P. Straatsma, H.J.J. van Dam, D. Wang, J. Nieplocha,
                        E. Apra, T.L. Windus, W.A. de Jong
                 "NWChem: a comprehensive and scalable open-source
                  solution for large scale molecular simulations"
                      Comput. Phys. Commun. 181, 1477 (2010)
                           doi:10.1016/j.cpc.2010.04.018

                                      AUTHORS
                                      -------
          E. Apra, E. J. Bylaska, W. A. de Jong, N. Govind, K. Kowalski,
       T. P. Straatsma, M. Valiev, H. J. J. van Dam, D. Wang, T. L. Windus,
        J. Hammond, J. Autschbach, K. Bhaskaran-Nair, J. Brabec, K. Lopata,
    S. A. Fischer, S. Krishnamoorthy, M. Jacquelin, W. Ma, M. Klemm, O. Villa,
      Y. Chen, V. Anisimov, F. Aquino, S. Hirata, M. T. Hackler, V. Konjkov,
      T. Risthaus, M. Malagoli, A. Marenich, A. Otero-de-la-Roza, J. Mullin,
        P. Nichols, R. Peverati, J. Pittner, Y. Zhao, P.-D. Fan, A. Fonari,
       M. Williamson, R. J. Harrison, J. R. Rehr, M. Dupuis, D. Silverstein,
    D. M. A. Smith, J. Nieplocha, V. Tipparaju, M. Krishnan, B. E. Van Kuiken,
        A. Vazquez-Mayagoitia, L. Jensen, M. Swart, Q. Wu, T. Van Voorhis,
     A. A. Auer, M. Nooijen, L. D. Crosby, E. Brown, G. Cisneros, G. I. Fann,
   H. Fruchtl, J. Garza, K. Hirao, R. A. Kendall, J. A. Nichols, K. Tsemekhman,
    K. Wolinski, J. Anchell, D. E. Bernholdt, P. Borowski, T. Clark, D. Clerc,
   H. Dachsel, M. J. O. Deegan, K. Dyall, D. Elwood, E. Glendening, M. Gutowski,
   A. C. Hess, J. Jaffe, B. G. Johnson, J. Ju, R. Kobayashi, R. Kutteh, Z. Lin,
   R. Littlefield, X. Long, B. Meng, T. Nakajima, S. Niu, L. Pollack, M. Rosing,
   K. Glaesemann, G. Sandrone, M. Stave, H. Taylor, G. Thomas, J. H. van Lenthe,
                               A. T. Wong, Z. Zhang.

 Total times  cpu:        8.5s     wall:       11.5s
