 argument  1 = input-wf.nw



============================== echo of input deck ==============================
echo
start wfn1_dat
geometry units au noautoz
  H 0 0 -5.44434600000000000000
  H 0 0  5.44434600000000000000
  symmetry cs
end
basis
  H library 6-31g
end
set wfn1:input_vectors "atomic"
set wfn1:solver "monte-carlo"
set wfn1:print_error F
set wfn1:t_initial 0.1
#set wfn1:corr_expr "wfn1_mx"
set wfn1:corr_expr "wfn1c"
set wfn1:t_bath 0.0
set wfn1:maxit  20000
task wfn1 energy
================================================================================


                                         
                                         


              Northwest Computational Chemistry Package (NWChem) 6.8
              ------------------------------------------------------


                    Environmental Molecular Sciences Laboratory
                       Pacific Northwest National Laboratory
                                Richland, WA 99352

                              Copyright (c) 1994-2015
                       Pacific Northwest National Laboratory
                            Battelle Memorial Institute

             NWChem is an open-source computational chemistry package
                        distributed under the terms of the
                      Educational Community License (ECL) 2.0
             A copy of the license is included with this distribution
                              in the LICENSE.TXT file

                                  ACKNOWLEDGMENT
                                  --------------

            This software and its documentation were developed at the
            EMSL at Pacific Northwest National Laboratory, a multiprogram
            national laboratory, operated for the U.S. Department of Energy
            by Battelle under Contract Number DE-AC05-76RL01830. Support
            for this work was provided by the Department of Energy Office
            of Biological and Environmental Research, Office of Basic
            Energy Sciences, and the Office of Advanced Scientific Computing.


           Job information
           ---------------

    hostname        = erato
    program         = ../../../bin/LINUX64/nwchem
    date            = Mon Mar  1 01:55:42 2021

    compiled        = Sun_Feb_28_18:02:42_2021
    source          = /home/hvandam/nwchem-1-wfn1
    nwchem branch   = Development
    nwchem revision = nwchem_on_git-124-gad72d19fff205e319ffbbf2bca37a04ded6ad57b
    ga revision     = nwchem_on_git-124-gad72d19
    use scalapack   = F
    input           = input-wf.nw
    prefix          = wfn1_dat.
    data base       = ./wfn1_dat.db
    status          = startup
    nproc           =        1
    time left       =     -1s



           Memory information
           ------------------

    heap     =   13107198 doubles =    100.0 Mbytes
    stack    =   13107195 doubles =    100.0 Mbytes
    global   =   26214400 doubles =    200.0 Mbytes (distinct from heap & stack)
    total    =   52428793 doubles =    400.0 Mbytes
    verify   = yes
    hardfail = no 


           Directory information
           ---------------------

  0 permanent = .
  0 scratch   = .




                                NWChem Input Module
                                -------------------


 Turning off AUTOSYM since
 SYMMETRY directive was detected!



                             Geometry "geometry" -> ""
                             -------------------------

 Output coordinates in a.u. (scale by  1.000000000 to convert to a.u.)

  No.       Tag          Charge          X              Y              Z
 ---- ---------------- ---------- -------------- -------------- --------------
    1 H                    1.0000     0.00000000     0.00000000    -5.44434600
    2 H                    1.0000     0.00000000     0.00000000     5.44434600

      Atomic Mass 
      ----------- 

      H                  1.007825


 Effective nuclear repulsion energy (a.u.)       0.0918383953

            Nuclear Dipole moment (a.u.) 
            ----------------------------
        X                 Y               Z
 ---------------- ---------------- ----------------
     0.0000000000     0.0000000000     0.0000000000

      Symmetry information
      --------------------

 Group name             Cs        
 Group number              2
 Group order               2
 No. of unique centers     1

      Symmetry unique atoms

     1


            XYZ format geometry
            -------------------
     2
 geometry
 H                     0.00000000     0.00000000    -2.88102404
 H                     0.00000000     0.00000000     2.88102404

                      Basis "ao basis" -> "" (cartesian)
                      -----
  H (Hydrogen)
  ------------
            Exponent  Coefficients 
       -------------- ---------------------------------------------------------
  1 S  1.87311370E+01  0.033495
  1 S  2.82539370E+00  0.234727
  1 S  6.40121700E-01  0.813757

  2 S  1.61277800E-01  1.000000



 Summary of "ao basis" -> "" (cartesian)
 ------------------------------------------------------------------------------
       Tag                 Description            Shells   Functions and Types
 ---------------- ------------------------------  ------  ---------------------
 H                           6-31g                   2        2   2s



                                NWChem WFN1 Module
                                ------------------



          No. of electrons :     2
           Alpha electrons :     1
            Beta electrons :     1
          Charge           :     0
          Spin multiplicity:     1

 HvD: wfn1_inpdft
 HvD: nquad_task =                     1
 HvD: iangquad   =                     0
 HvD: gridtype   = user      
 HvD: leb        =  T
 HvD: radgrid    = murakn    
 HvD: trunc_neigh=  T
 HvD: lssw       =  T
 HvD: whichssw   = erf1    
 HvD: mxnrad     =                     0
 HvD: mxnang     =                     0
 HVD: wfn1: movecs_in  = atomic                                                                                                                                                                                                                                                          
 HVD: wfn1: movecs_out = ./wfn1_dat.movecs                                                                                                                                                                                                                                               

      Superposition of Atomic Density Guess
      -------------------------------------

 Sum of atomic energies:          -0.99646508

      Non-variational initial energy
      ------------------------------

 Total energy =      -0.682110
 1-e energy   =      -1.180143
 2-e energy   =       0.406194
 HOMO         =      -0.191237
 LUMO         =      -0.191135

 iteration              energy           error
 ---------              ------           -----
         0         -0.86594990        0.080000
         1         -0.86599007        0.080000
         2         -0.87088341        0.080000
         3         -0.87892161        0.080000
         4         -0.88355809        0.080000
         5         -0.88462184        0.080000
         6         -0.89012567        0.080000
         7         -0.89390536        0.080000
         8         -0.89812692        0.080000
         9         -0.89888632        0.080000
        10         -0.90100883        0.080000
        11         -0.90300781        0.080000
        12         -0.90346380        0.080000
        13         -0.90392845        0.080000
        14         -0.90510479        0.080000
        15         -0.90656139        0.080000
        16         -0.90892400        0.080000
        17         -0.90946610        0.080000
        18         -0.91089850        0.080000
        19         -0.91289279        0.080000
        20         -0.91543433        0.080000
        21         -0.91583608        0.080000
        22         -0.91848789        0.080000
        23         -0.91887531        0.080000
        24         -0.92141350        0.080000
        25         -0.92144025        0.080000
        26         -0.92201422        0.080000
        27         -0.92357216        0.080000
        28         -0.92365744        0.080000
        29         -0.92380133        0.080000
        30         -0.92440643        0.080000
        31         -0.92470973        0.080000
        32         -0.92560213        0.080000
        33         -0.92606508        0.080000
        34         -0.92695279        0.080000
        35         -0.92833800        0.080000
        36         -0.92858795        0.080000
        37         -0.92916844        0.080000
        38         -0.92936308        0.080000
        39         -0.92937863        0.080000
        40         -0.92950496        0.080000
        41         -0.92953814        0.080000
        42         -0.92954945        0.063496
        43         -0.92958359        0.063496
        44         -0.92962160        0.063496
        45         -0.92962256        0.063496
        46         -0.92967166        0.063496
        47         -0.92969682        0.050397
        48         -0.92970661        0.050397
        49         -0.92971642        0.050397
        50         -0.92973394        0.040000
        51         -0.92973938        0.040000
        52         -0.92974573        0.040000
        53         -0.92974674        0.040000
        54         -0.92974803        0.031748
        55         -0.92975776        0.031748
        56         -0.92976500        0.025198
        57         -0.92977169        0.025198
        58         -0.92977403        0.025198
        59         -0.92977671        0.020000
        60         -0.92977840        0.020000
        61         -0.92977869        0.020000
        62         -0.92977937        0.020000
        63         -0.92977951        0.015874
        64         -0.92978332        0.015874
        65         -0.92978528        0.012599
        66         -0.92978626        0.012599
        67         -0.92978758        0.010000
        68         -0.92978805        0.007937
        69         -0.92978937        0.007937
        70         -0.92978968        0.007937
        71         -0.92978996        0.007937
        72         -0.92979026        0.006300
        73         -0.92979042        0.006300
        74         -0.92979054        0.005000
        75         -0.92979065        0.003969
        76         -0.92979066        0.002500
        77         -0.92979067        0.002500
        78         -0.92979067        0.002500
        79         -0.92979068        0.002500
        80         -0.92979070        0.002500
        81         -0.92979081        0.002500
        82         -0.92979082        0.002500
        83         -0.92979082        0.001984
        84         -0.92979083        0.001984
        85         -0.92979083        0.001984
        86         -0.92979086        0.001984
        87         -0.92979087        0.001575
        88         -0.92979087        0.001575
        89         -0.92979087        0.001575
        90         -0.92979087        0.001575
        91         -0.92979089        0.001575
        92         -0.92979090        0.001575
        93         -0.92979091        0.001575
        94         -0.92979092        0.000992
        95         -0.92979092        0.000787
        96         -0.92979092        0.000625
        97         -0.92979093        0.000625
        98         -0.92979093        0.000496
        99         -0.92979094        0.000496
       100         -0.92979094        0.000496
       101         -0.92979094        0.000496
       102         -0.92979094        0.000496
       103         -0.92979094        0.000496
       104         -0.92979095        0.000496
       105         -0.92979095        0.000496
       106         -0.92979095        0.000496
       107         -0.92979095        0.000496
       108         -0.92979095        0.000394
       109         -0.92979095        0.000313
       110         -0.92979095        0.000313
       111         -0.92979095        0.000248
       112         -0.92979095        0.000248
       113         -0.92979095        0.000197
       114         -0.92979095        0.000197
       115         -0.92979095        0.000156
       116         -0.92979096        0.000124
       117         -0.92979096        0.000098
       118         -0.92979096        0.000098
       119         -0.92979096        0.000098
       120         -0.92979096        0.000098
       121         -0.92979096        0.000098
       122         -0.92979096        0.000098
       123         -0.92979096        0.000098
       124         -0.92979096        0.000062
       125         -0.92979096        0.000049
       126         -0.92979096        0.000039
       127         -0.92979096        0.000020
       128         -0.92979096        0.000016
       129         -0.92979096        0.000016
       130         -0.92979096        0.000012
       131         -0.92979096        0.000012
       132         -0.92979096        0.000012
       133         -0.92979096        0.000008
       134         -0.92979096        0.000008
       135         -0.92979096        0.000008
       136         -0.92979096        0.000006
       137         -0.92979096        0.000004
       138         -0.92979096        0.000004
       139         -0.92979096        0.000004
       140         -0.92979096        0.000004
       141         -0.92979096        0.000004
       142         -0.92979096        0.000004
       143         -0.92979096        0.000004
       144         -0.92979096        0.000004
       145         -0.92979096        0.000003
       146         -0.92979096        0.000003
       147         -0.92979096        0.000002
       148         -0.92979096        0.000002
       149         -0.92979096        0.000002
       150         -0.92979096        0.000002
       151         -0.92979096        0.000002
       152         -0.92979096        0.000002
       153         -0.92979096        0.000002
       154         -0.92979096        0.000002
       155         -0.92979096        0.000002
       156         -0.92979096        0.000002
       157         -0.92979096        0.000002
       158         -0.92979096        0.000002
       159         -0.92979096        0.000002
       160         -0.92979096        0.000002
       161         -0.92979096        0.000002
       162         -0.92979096        0.000002
       163         -0.92979096        0.000002
       164         -0.92979096        0.000002
       165         -0.92979096        0.000002
       166         -0.92979096        0.000002
       167         -0.92979096        0.000002
       168         -0.92979096        0.000002
       169         -0.92979096        0.000002
       170         -0.92979096        0.000002
       171         -0.92979096        0.000002
       172         -0.92979096        0.000002
       173         -0.92979096        0.000001

 Reached Convergence

 WFN1                     :
 --------------------------
 Total WFN1 energy  =          -0.9297909556
 1-Electron energy  =          -1.1140120982
 2-Electron energy  =           0.3415873413
 Correlation energy =          -0.2492045940
 DFT XC energy      =           0.0000000000
 Entropy energy     =           0.0000000000
 Nuclear energy     =           0.0918383953

 conventional Hartree-Fock:
 --------------------------
 Total SCF energy  =          -0.8698823892
 2-Electron energy =           0.4014959077

                WFN1 Final Natural orbital energies and occupations
                ---------------------------------------------------

              Alpha       Beta            Alpha       Beta  
            --------    --------        --------    --------
       1      0.0000      0.0000          0.4844      0.4844
       2      0.0000      0.0000          0.4839      0.4839
       3      0.0000      0.0000          0.0159      0.0159
       4      0.0000      0.0000          0.0159      0.0159

             WFN1 Final Correlation function energies and occupations
             --------------------------------------------------------

              Alpha       Beta            Alpha       Beta  
            --------    --------        --------    --------
       1      0.0000      0.0000          1.0000      1.0000
       2      0.0000      0.0000          0.0000      0.0000
       3      0.0000      0.0000          0.0000      0.0000
       4      0.0000      0.0000          0.0000      0.0000

                WFN1 Final alpha-alpha 2-matrix occupation numbers
                --------------------------------------------------


 global array: g_momo1[1:4,1:4],  handle: -990 

            1           2           3           4  
       ----------- ----------- ----------- -----------
   1       0.00000     0.00000    -0.00000     0.00000
   2      -0.00000     0.00000    -0.00000    -0.00000
   3       0.00000     0.00000     0.00000     0.00000
   4       0.00000     0.00000     0.00000     0.00000

                 WFN1 Final beta-beta 2-matrix occupation numbers
                 ------------------------------------------------


 global array: g_momo2[1:4,1:4],  handle: -989 

            1           2           3           4  
       ----------- ----------- ----------- -----------
   1       0.00000     0.00000    -0.00000     0.00000
   2      -0.00000     0.00000    -0.00000    -0.00000
   3       0.00000     0.00000     0.00000     0.00000
   4       0.00000     0.00000     0.00000     0.00000

                  WFN1 Final alpha Correlation Function Analysis
                  ----------------------------------------------


 global array: Ca[1:4,1:4],  handle: -977 

                     1                       2                       3                       4  
       ----------------------- ----------------------- ----------------------- -----------------------
   1      -0.38917,    0.57700    -0.39354,    0.59279    -0.00802,   -0.09619    -0.00007,   -0.00534
   2      -0.52615,    0.45503     0.53225,   -0.45297     0.09994,   -0.12164     0.03161,    0.04307
   3      -0.03861,    0.11993    -0.03864,   -0.04317    -0.09489,    0.73964    -0.07335,    0.64754
   4       0.03089,    0.12210    -0.01958,   -0.03884     0.46643,    0.43848    -0.55018,   -0.51935

                   WFN1 Final beta Correlation Function Analysis
                   ---------------------------------------------


 global array: Cb[1:4,1:4],  handle: -976 

                     1                       2                       3                       4  
       ----------------------- ----------------------- ----------------------- -----------------------
   1      -0.38917,    0.57700    -0.39354,    0.59279    -0.00802,   -0.09619    -0.00007,   -0.00534
   2      -0.52615,    0.45503     0.53225,   -0.45297     0.09994,   -0.12164     0.03161,    0.04307
   3      -0.03861,    0.11993    -0.03864,   -0.04317    -0.09489,    0.73964    -0.07335,    0.64754
   4       0.03089,    0.12210    -0.01958,   -0.03884     0.46643,    0.43848    -0.55018,   -0.51935

                     WFN1 Final Alpha Natural Orbital Analysis
                     -----------------------------------------

 Vector    1  Occ=4.843778D-01  E= 0.000000D+00
              MO Center=  0.0D+00,  0.0D+00,  2.6D-07, r^2= 9.2D+00
   Bfn.  Coefficient  Atom+Function         Bfn.  Coefficient  Atom+Function  
  ----- ------------  ---------------      ----- ------------  ---------------
     2     -0.513867  1 H  s                  4     -0.513867  2 H  s          
     1     -0.253630  1 H  s                  3     -0.253630  2 H  s          

 Vector    2  Occ=4.838866D-01  E= 0.000000D+00
              MO Center=  0.0D+00,  0.0D+00, -2.6D-07, r^2= 9.2D+00
   Bfn.  Coefficient  Atom+Function         Bfn.  Coefficient  Atom+Function  
  ----- ------------  ---------------      ----- ------------  ---------------
     2      0.513750  1 H  s                  4     -0.513750  2 H  s          
     1      0.253797  1 H  s                  3     -0.253797  2 H  s          

 Vector    3  Occ=1.587374D-02  E= 0.000000D+00
              MO Center=  0.0D+00,  0.0D+00, -2.7D-06, r^2= 9.4D+00
   Bfn.  Coefficient  Atom+Function         Bfn.  Coefficient  Atom+Function  
  ----- ------------  ---------------      ----- ------------  ---------------
     1     -0.904434  1 H  s                  3     -0.904434  2 H  s          
     2      0.786262  1 H  s                  4      0.786261  2 H  s          

 Vector    4  Occ=1.586187D-02  E= 0.000000D+00
              MO Center=  0.0D+00,  0.0D+00,  2.7D-06, r^2= 9.4D+00
   Bfn.  Coefficient  Atom+Function         Bfn.  Coefficient  Atom+Function  
  ----- ------------  ---------------      ----- ------------  ---------------
     1     -0.904439  1 H  s                  3      0.904440  2 H  s          
     2      0.786477  1 H  s                  4     -0.786478  2 H  s          


                     WFN1 Final Beta Natural Orbital Analysis
                     ----------------------------------------

 Vector    1  Occ=4.843778D-01  E= 0.000000D+00
              MO Center=  0.0D+00,  0.0D+00,  2.6D-07, r^2= 9.2D+00
   Bfn.  Coefficient  Atom+Function         Bfn.  Coefficient  Atom+Function  
  ----- ------------  ---------------      ----- ------------  ---------------
     2     -0.513867  1 H  s                  4     -0.513867  2 H  s          
     1     -0.253630  1 H  s                  3     -0.253630  2 H  s          

 Vector    2  Occ=4.838866D-01  E= 0.000000D+00
              MO Center=  0.0D+00,  0.0D+00, -2.6D-07, r^2= 9.2D+00
   Bfn.  Coefficient  Atom+Function         Bfn.  Coefficient  Atom+Function  
  ----- ------------  ---------------      ----- ------------  ---------------
     2      0.513750  1 H  s                  4     -0.513750  2 H  s          
     1      0.253797  1 H  s                  3     -0.253797  2 H  s          

 Vector    3  Occ=1.587374D-02  E= 0.000000D+00
              MO Center=  0.0D+00,  0.0D+00, -2.7D-06, r^2= 9.4D+00
   Bfn.  Coefficient  Atom+Function         Bfn.  Coefficient  Atom+Function  
  ----- ------------  ---------------      ----- ------------  ---------------
     1     -0.904434  1 H  s                  3     -0.904434  2 H  s          
     2      0.786262  1 H  s                  4      0.786261  2 H  s          

 Vector    4  Occ=1.586187D-02  E= 0.000000D+00
              MO Center=  0.0D+00,  0.0D+00,  2.7D-06, r^2= 9.4D+00
   Bfn.  Coefficient  Atom+Function         Bfn.  Coefficient  Atom+Function  
  ----- ------------  ---------------      ----- ------------  ---------------
     1     -0.904439  1 H  s                  3      0.904440  2 H  s          
     2      0.786477  1 H  s                  4     -0.786478  2 H  s          


 Task  times  cpu:       10.2s     wall:       13.9s
 Summary of allocated global arrays
-----------------------------------
  No active global arrays



                         GA Statistics for process    0
                         ------------------------------

       create   destroy   get      put      acc     scatter   gather  read&inc
calls:   44       44     6.57e+06 1.39e+04 1.80e+04    0        0       10     
number of processes/call 1.00e+00 1.00e+00 1.00e+00 0.00e+00 0.00e+00
bytes total:             8.44e+08 2.30e+06 2.87e+06 0.00e+00 0.00e+00 8.00e+01
bytes remote:            0.00e+00 0.00e+00 0.00e+00 0.00e+00 0.00e+00 0.00e+00
Max memory consumed for GA by this process: 10624 bytes
MA_summarize_allocated_blocks: starting scan ...
MA_summarize_allocated_blocks: scan completed: 0 heap blocks, 0 stack blocks
MA usage statistics:

	allocation statistics:
					      heap	     stack
					      ----	     -----
	current number of blocks	         0	         0
	maximum number of blocks	        19	        17
	current total bytes		         0	         0
	maximum total bytes		   3204344	  22508664
	maximum total K-bytes		      3205	     22509
	maximum total M-bytes		         4	        23


                                NWChem Input Module
                                -------------------





                                     CITATION
                                     --------
                Please cite the following reference when publishing
                           results obtained with NWChem:

                 M. Valiev, E.J. Bylaska, N. Govind, K. Kowalski,
              T.P. Straatsma, H.J.J. van Dam, D. Wang, J. Nieplocha,
                        E. Apra, T.L. Windus, W.A. de Jong
                 "NWChem: a comprehensive and scalable open-source
                  solution for large scale molecular simulations"
                      Comput. Phys. Commun. 181, 1477 (2010)
                           doi:10.1016/j.cpc.2010.04.018

                                      AUTHORS
                                      -------
          E. Apra, E. J. Bylaska, W. A. de Jong, N. Govind, K. Kowalski,
       T. P. Straatsma, M. Valiev, H. J. J. van Dam, D. Wang, T. L. Windus,
        J. Hammond, J. Autschbach, K. Bhaskaran-Nair, J. Brabec, K. Lopata,
    S. A. Fischer, S. Krishnamoorthy, M. Jacquelin, W. Ma, M. Klemm, O. Villa,
      Y. Chen, V. Anisimov, F. Aquino, S. Hirata, M. T. Hackler, V. Konjkov,
      T. Risthaus, M. Malagoli, A. Marenich, A. Otero-de-la-Roza, J. Mullin,
        P. Nichols, R. Peverati, J. Pittner, Y. Zhao, P.-D. Fan, A. Fonari,
       M. Williamson, R. J. Harrison, J. R. Rehr, M. Dupuis, D. Silverstein,
    D. M. A. Smith, J. Nieplocha, V. Tipparaju, M. Krishnan, B. E. Van Kuiken,
        A. Vazquez-Mayagoitia, L. Jensen, M. Swart, Q. Wu, T. Van Voorhis,
     A. A. Auer, M. Nooijen, L. D. Crosby, E. Brown, G. Cisneros, G. I. Fann,
   H. Fruchtl, J. Garza, K. Hirao, R. A. Kendall, J. A. Nichols, K. Tsemekhman,
    K. Wolinski, J. Anchell, D. E. Bernholdt, P. Borowski, T. Clark, D. Clerc,
   H. Dachsel, M. J. O. Deegan, K. Dyall, D. Elwood, E. Glendening, M. Gutowski,
   A. C. Hess, J. Jaffe, B. G. Johnson, J. Ju, R. Kobayashi, R. Kutteh, Z. Lin,
   R. Littlefield, X. Long, B. Meng, T. Nakajima, S. Niu, L. Pollack, M. Rosing,
   K. Glaesemann, G. Sandrone, M. Stave, H. Taylor, G. Thomas, J. H. van Lenthe,
                               A. T. Wong, Z. Zhang.

 Total times  cpu:       10.2s     wall:       13.9s
