 argument  1 = input-wf.nw



============================== echo of input deck ==============================
echo
start wfn1_dat
geometry units au noautoz
  H 0 0 -4.09434600000000000000
  H 0 0  4.09434600000000000000
  symmetry cs
end
basis
  H library 6-31g
end
set wfn1:input_vectors "atomic"
set wfn1:solver "monte-carlo"
set wfn1:print_error F
set wfn1:t_initial 0.1
#set wfn1:corr_expr "wfn1_mx"
set wfn1:corr_expr "wfn1c"
set wfn1:t_bath 0.0
set wfn1:maxit  20000
task wfn1 energy
================================================================================


                                         
                                         


              Northwest Computational Chemistry Package (NWChem) 6.8
              ------------------------------------------------------


                    Environmental Molecular Sciences Laboratory
                       Pacific Northwest National Laboratory
                                Richland, WA 99352

                              Copyright (c) 1994-2015
                       Pacific Northwest National Laboratory
                            Battelle Memorial Institute

             NWChem is an open-source computational chemistry package
                        distributed under the terms of the
                      Educational Community License (ECL) 2.0
             A copy of the license is included with this distribution
                              in the LICENSE.TXT file

                                  ACKNOWLEDGMENT
                                  --------------

            This software and its documentation were developed at the
            EMSL at Pacific Northwest National Laboratory, a multiprogram
            national laboratory, operated for the U.S. Department of Energy
            by Battelle under Contract Number DE-AC05-76RL01830. Support
            for this work was provided by the Department of Energy Office
            of Biological and Environmental Research, Office of Basic
            Energy Sciences, and the Office of Advanced Scientific Computing.


           Job information
           ---------------

    hostname        = erato
    program         = ../../../bin/LINUX64/nwchem
    date            = Mon Mar  1 01:49:13 2021

    compiled        = Sun_Feb_28_18:02:42_2021
    source          = /home/hvandam/nwchem-1-wfn1
    nwchem branch   = Development
    nwchem revision = nwchem_on_git-124-gad72d19fff205e319ffbbf2bca37a04ded6ad57b
    ga revision     = nwchem_on_git-124-gad72d19
    use scalapack   = F
    input           = input-wf.nw
    prefix          = wfn1_dat.
    data base       = ./wfn1_dat.db
    status          = startup
    nproc           =        1
    time left       =     -1s



           Memory information
           ------------------

    heap     =   13107198 doubles =    100.0 Mbytes
    stack    =   13107195 doubles =    100.0 Mbytes
    global   =   26214400 doubles =    200.0 Mbytes (distinct from heap & stack)
    total    =   52428793 doubles =    400.0 Mbytes
    verify   = yes
    hardfail = no 


           Directory information
           ---------------------

  0 permanent = .
  0 scratch   = .




                                NWChem Input Module
                                -------------------


 Turning off AUTOSYM since
 SYMMETRY directive was detected!



                             Geometry "geometry" -> ""
                             -------------------------

 Output coordinates in a.u. (scale by  1.000000000 to convert to a.u.)

  No.       Tag          Charge          X              Y              Z
 ---- ---------------- ---------- -------------- -------------- --------------
    1 H                    1.0000     0.00000000     0.00000000    -4.09434600
    2 H                    1.0000     0.00000000     0.00000000     4.09434600

      Atomic Mass 
      ----------- 

      H                  1.007825


 Effective nuclear repulsion energy (a.u.)       0.1221196255

            Nuclear Dipole moment (a.u.) 
            ----------------------------
        X                 Y               Z
 ---------------- ---------------- ----------------
     0.0000000000     0.0000000000     0.0000000000

      Symmetry information
      --------------------

 Group name             Cs        
 Group number              2
 Group order               2
 No. of unique centers     1

      Symmetry unique atoms

     1


            XYZ format geometry
            -------------------
     2
 geometry
 H                     0.00000000     0.00000000    -2.16663475
 H                     0.00000000     0.00000000     2.16663475

                      Basis "ao basis" -> "" (cartesian)
                      -----
  H (Hydrogen)
  ------------
            Exponent  Coefficients 
       -------------- ---------------------------------------------------------
  1 S  1.87311370E+01  0.033495
  1 S  2.82539370E+00  0.234727
  1 S  6.40121700E-01  0.813757

  2 S  1.61277800E-01  1.000000



 Summary of "ao basis" -> "" (cartesian)
 ------------------------------------------------------------------------------
       Tag                 Description            Shells   Functions and Types
 ---------------- ------------------------------  ------  ---------------------
 H                           6-31g                   2        2   2s



                                NWChem WFN1 Module
                                ------------------



          No. of electrons :     2
           Alpha electrons :     1
            Beta electrons :     1
          Charge           :     0
          Spin multiplicity:     1

 HvD: wfn1_inpdft
 HvD: nquad_task =                     1
 HvD: iangquad   =                     0
 HvD: gridtype   = user      
 HvD: leb        =  T
 HvD: radgrid    = murakn    
 HvD: trunc_neigh=  T
 HvD: lssw       =  T
 HvD: whichssw   = erf1    
 HvD: mxnrad     =                     0
 HvD: mxnang     =                     0
 HVD: wfn1: movecs_in  = atomic                                                                                                                                                                                                                                                          
 HVD: wfn1: movecs_out = ./wfn1_dat.movecs                                                                                                                                                                                                                                               

      Superposition of Atomic Density Guess
      -------------------------------------

 Sum of atomic energies:          -0.99646508

      Non-variational initial energy
      ------------------------------

 Total energy =      -0.682111
 1-e energy   =      -1.240705
 2-e energy   =       0.436475
 HOMO         =      -0.192970
 LUMO         =      -0.189401

 iteration              energy           error
 ---------              ------           -----
         0         -0.87358699        0.080000
         1         -0.87979664        0.080000
         2         -0.88107356        0.080000
         3         -0.88570333        0.080000
         4         -0.88909314        0.080000
         5         -0.89246186        0.080000
         6         -0.89720084        0.080000
         7         -0.89777330        0.080000
         8         -0.89841369        0.080000
         9         -0.90018708        0.080000
        10         -0.90172075        0.080000
        11         -0.90327071        0.080000
        12         -0.90755534        0.080000
        13         -0.90789454        0.080000
        14         -0.90966878        0.080000
        15         -0.90973136        0.080000
        16         -0.91314918        0.080000
        17         -0.91462899        0.080000
        18         -0.91575365        0.080000
        19         -0.91599467        0.080000
        20         -0.91646328        0.080000
        21         -0.91964264        0.080000
        22         -0.92319730        0.080000
        23         -0.92368388        0.080000
        24         -0.92447387        0.080000
        25         -0.92722027        0.080000
        26         -0.92775689        0.080000
        27         -0.92800878        0.080000
        28         -0.92896909        0.080000
        29         -0.92991217        0.080000
        30         -0.92991229        0.080000
        31         -0.93011266        0.080000
        32         -0.93082209        0.080000
        33         -0.93111690        0.080000
        34         -0.93125437        0.080000
        35         -0.93178470        0.080000
        36         -0.93206636        0.080000
        37         -0.93295610        0.080000
        38         -0.93373202        0.080000
        39         -0.93411175        0.080000
        40         -0.93452910        0.080000
        41         -0.93514067        0.080000
        42         -0.93658578        0.080000
        43         -0.93703810        0.080000
        44         -0.93770039        0.080000
        45         -0.93812238        0.080000
        46         -0.93838798        0.080000
        47         -0.93842892        0.080000
        48         -0.93857929        0.080000
        49         -0.93866122        0.080000
        50         -0.93883865        0.080000
        51         -0.93886915        0.080000
        52         -0.93890342        0.080000
        53         -0.93895324        0.080000
        54         -0.93905254        0.080000
        55         -0.93918470        0.080000
        56         -0.93921009        0.063496
        57         -0.93922455        0.063496
        58         -0.93922585        0.063496
        59         -0.93924529        0.063496
        60         -0.93925667        0.040000
        61         -0.93926709        0.031748
        62         -0.93926824        0.031748
        63         -0.93927137        0.031748
        64         -0.93927936        0.031748
        65         -0.93928392        0.031748
        66         -0.93929234        0.020000
        67         -0.93929252        0.020000
        68         -0.93929349        0.015874
        69         -0.93929502        0.012599
        70         -0.93929536        0.010000
        71         -0.93929549        0.010000
        72         -0.93929562        0.010000
        73         -0.93929610        0.010000
        74         -0.93929628        0.006300
        75         -0.93929633        0.003969
        76         -0.93929638        0.003150
        77         -0.93929642        0.002500
        78         -0.93929650        0.002500
        79         -0.93929652        0.002500
        80         -0.93929653        0.002500
        81         -0.93929655        0.002500
        82         -0.93929655        0.002500
        83         -0.93929656        0.001984
        84         -0.93929657        0.001250
        85         -0.93929657        0.001250
        86         -0.93929658        0.001250
        87         -0.93929661        0.001250
        88         -0.93929661        0.000787
        89         -0.93929662        0.000787
        90         -0.93929662        0.000625
        91         -0.93929662        0.000625
        92         -0.93929662        0.000625
        93         -0.93929663        0.000625
        94         -0.93929663        0.000496
        95         -0.93929663        0.000496
        96         -0.93929664        0.000496
        97         -0.93929664        0.000496
        98         -0.93929664        0.000496
        99         -0.93929664        0.000394
       100         -0.93929664        0.000394
       101         -0.93929665        0.000394
       102         -0.93929665        0.000313
       103         -0.93929665        0.000313
       104         -0.93929665        0.000248
       105         -0.93929665        0.000197
       106         -0.93929665        0.000124
       107         -0.93929665        0.000124
       108         -0.93929665        0.000124
       109         -0.93929665        0.000124
       110         -0.93929665        0.000124
       111         -0.93929665        0.000124
       112         -0.93929665        0.000124
       113         -0.93929665        0.000098
       114         -0.93929665        0.000098
       115         -0.93929665        0.000098
       116         -0.93929665        0.000098
       117         -0.93929665        0.000062
       118         -0.93929665        0.000049
       119         -0.93929665        0.000049
       120         -0.93929665        0.000049
       121         -0.93929665        0.000049
       122         -0.93929665        0.000049
       123         -0.93929665        0.000039
       124         -0.93929665        0.000039
       125         -0.93929665        0.000031
       126         -0.93929665        0.000031
       127         -0.93929665        0.000025
       128         -0.93929665        0.000025
       129         -0.93929665        0.000020
       130         -0.93929665        0.000020
       131         -0.93929665        0.000020
       132         -0.93929665        0.000020
       133         -0.93929665        0.000016
       134         -0.93929665        0.000016
       135         -0.93929665        0.000010
       136         -0.93929665        0.000010
       137         -0.93929665        0.000010
       138         -0.93929665        0.000010
       139         -0.93929665        0.000010
       140         -0.93929665        0.000010
       141         -0.93929665        0.000010
       142         -0.93929665        0.000008
       143         -0.93929665        0.000006
       144         -0.93929665        0.000006
       145         -0.93929665        0.000006
       146         -0.93929665        0.000006
       147         -0.93929665        0.000006
       148         -0.93929665        0.000005
       149         -0.93929665        0.000005
       150         -0.93929665        0.000005
       151         -0.93929665        0.000005
       152         -0.93929665        0.000005
       153         -0.93929665        0.000005
       154         -0.93929665        0.000005
       155         -0.93929665        0.000004
       156         -0.93929665        0.000004
       157         -0.93929665        0.000004
       158         -0.93929665        0.000004
       159         -0.93929665        0.000004
       160         -0.93929665        0.000004
       161         -0.93929665        0.000004
       162         -0.93929665        0.000002
       163         -0.93929665        0.000002
       164         -0.93929665        0.000002
       165         -0.93929665        0.000002
       166         -0.93929665        0.000002
       167         -0.93929665        0.000002
       168         -0.93929665        0.000002
       169         -0.93929665        0.000002
       170         -0.93929665        0.000002
       171         -0.93929665        0.000002
       172         -0.93929665        0.000002
       173         -0.93929665        0.000002
       174         -0.93929665        0.000002
       175         -0.93929665        0.000002
       176         -0.93929665        0.000002
       177         -0.93929665        0.000001
       178         -0.93929665        0.000001
       179         -0.93929665        0.000001

 Reached Convergence

 WFN1                     :
 --------------------------
 Total WFN1 energy  =          -0.9392966490
 1-Electron energy  =          -1.1728503338
 2-Electron energy  =           0.3566874937
 Correlation energy =          -0.2452534343
 DFT XC energy      =           0.0000000000
 Entropy energy     =           0.0000000000
 Nuclear energy     =           0.1221196255

 conventional Hartree-Fock:
 --------------------------
 Total SCF energy  =          -0.8638730675
 2-Electron energy =           0.4321110752

                WFN1 Final Natural orbital energies and occupations
                ---------------------------------------------------

              Alpha       Beta            Alpha       Beta  
            --------    --------        --------    --------
       1      0.0000      0.0000          0.4920      0.4920
       2      0.0000      0.0000          0.4754      0.4754
       3      0.0000      0.0000          0.0166      0.0166
       4      0.0000      0.0000          0.0161      0.0161

             WFN1 Final Correlation function energies and occupations
             --------------------------------------------------------

              Alpha       Beta            Alpha       Beta  
            --------    --------        --------    --------
       1      0.0000      0.0000          1.0000      1.0000
       2      0.0000      0.0000          0.0000      0.0000
       3      0.0000      0.0000          0.0000      0.0000
       4      0.0000      0.0000          0.0000      0.0000

                WFN1 Final alpha-alpha 2-matrix occupation numbers
                --------------------------------------------------


 global array: g_momo1[1:4,1:4],  handle: -990 

            1           2           3           4  
       ----------- ----------- ----------- -----------
   1       0.00000     0.00000     0.00000     0.00000
   2      -0.00000     0.00000     0.00000     0.00000
   3      -0.00000     0.00000     0.00000     0.00000
   4       0.00000     0.00000     0.00000     0.00000

                 WFN1 Final beta-beta 2-matrix occupation numbers
                 ------------------------------------------------


 global array: g_momo2[1:4,1:4],  handle: -989 

            1           2           3           4  
       ----------- ----------- ----------- -----------
   1       0.00000     0.00000     0.00000     0.00000
   2      -0.00000     0.00000     0.00000     0.00000
   3      -0.00000     0.00000     0.00000     0.00000
   4       0.00000     0.00000     0.00000     0.00000

                  WFN1 Final alpha Correlation Function Analysis
                  ----------------------------------------------


 global array: Ca[1:4,1:4],  handle: -977 

                     1                       2                       3                       4  
       ----------------------- ----------------------- ----------------------- -----------------------
   1       0.44371,    0.54324     0.45956,    0.52588     0.01540,   -0.02733     0.10202,   -0.09418
   2      -0.58990,   -0.35690     0.60042,    0.36919     0.03548,    0.00427    -0.16202,   -0.01753
   3      -0.12836,   -0.00935    -0.01645,   -0.08965     0.32066,   -0.58284     0.34700,   -0.64203
   4      -0.02783,    0.12374    -0.05362,   -0.06531     0.40443,    0.62582    -0.35490,   -0.54369

                   WFN1 Final beta Correlation Function Analysis
                   ---------------------------------------------


 global array: Cb[1:4,1:4],  handle: -976 

                     1                       2                       3                       4  
       ----------------------- ----------------------- ----------------------- -----------------------
   1       0.44371,    0.54324     0.45956,    0.52588     0.01540,   -0.02733     0.10202,   -0.09418
   2      -0.58990,   -0.35690     0.60042,    0.36919     0.03548,    0.00427    -0.16202,   -0.01753
   3      -0.12836,   -0.00935    -0.01645,   -0.08965     0.32066,   -0.58284     0.34700,   -0.64203
   4      -0.02783,    0.12374    -0.05362,   -0.06531     0.40443,    0.62582    -0.35490,   -0.54369

                     WFN1 Final Alpha Natural Orbital Analysis
                     -----------------------------------------

 Vector    1  Occ=4.919929D-01  E= 0.000000D+00
              MO Center=  0.0D+00,  0.0D+00,  5.6D-08, r^2= 5.6D+00
   Bfn.  Coefficient  Atom+Function         Bfn.  Coefficient  Atom+Function  
  ----- ------------  ---------------      ----- ------------  ---------------
     2     -0.515313  1 H  s                  4     -0.515313  2 H  s          
     1     -0.250951  1 H  s                  3     -0.250951  2 H  s          

 Vector    2  Occ=4.753586D-01  E= 0.000000D+00
              MO Center=  0.0D+00,  0.0D+00, -5.4D-08, r^2= 5.6D+00
   Bfn.  Coefficient  Atom+Function         Bfn.  Coefficient  Atom+Function  
  ----- ------------  ---------------      ----- ------------  ---------------
     2     -0.512453  1 H  s                  4      0.512453  2 H  s          
     1     -0.256288  1 H  s                  3      0.256288  2 H  s          

 Vector    3  Occ=1.656309D-02  E= 0.000000D+00
              MO Center=  0.0D+00,  0.0D+00,  4.7D-07, r^2= 5.8D+00
   Bfn.  Coefficient  Atom+Function         Bfn.  Coefficient  Atom+Function  
  ----- ------------  ---------------      ----- ------------  ---------------
     1     -0.903666  1 H  s                  3     -0.903667  2 H  s          
     2      0.781099  1 H  s                  4      0.781099  2 H  s          

 Vector    4  Occ=1.608539D-02  E= 0.000000D+00
              MO Center=  0.0D+00,  0.0D+00, -4.7D-07, r^2= 5.9D+00
   Bfn.  Coefficient  Atom+Function         Bfn.  Coefficient  Atom+Function  
  ----- ------------  ---------------      ----- ------------  ---------------
     1     -0.905275  1 H  s                  3      0.905275  2 H  s          
     2      0.791572  1 H  s                  4     -0.791572  2 H  s          


                     WFN1 Final Beta Natural Orbital Analysis
                     ----------------------------------------

 Vector    1  Occ=4.919929D-01  E= 0.000000D+00
              MO Center=  0.0D+00,  0.0D+00,  5.6D-08, r^2= 5.6D+00
   Bfn.  Coefficient  Atom+Function         Bfn.  Coefficient  Atom+Function  
  ----- ------------  ---------------      ----- ------------  ---------------
     2     -0.515313  1 H  s                  4     -0.515313  2 H  s          
     1     -0.250951  1 H  s                  3     -0.250951  2 H  s          

 Vector    2  Occ=4.753586D-01  E= 0.000000D+00
              MO Center=  0.0D+00,  0.0D+00, -5.4D-08, r^2= 5.6D+00
   Bfn.  Coefficient  Atom+Function         Bfn.  Coefficient  Atom+Function  
  ----- ------------  ---------------      ----- ------------  ---------------
     2     -0.512453  1 H  s                  4      0.512453  2 H  s          
     1     -0.256288  1 H  s                  3      0.256288  2 H  s          

 Vector    3  Occ=1.656309D-02  E= 0.000000D+00
              MO Center=  0.0D+00,  0.0D+00,  4.7D-07, r^2= 5.8D+00
   Bfn.  Coefficient  Atom+Function         Bfn.  Coefficient  Atom+Function  
  ----- ------------  ---------------      ----- ------------  ---------------
     1     -0.903666  1 H  s                  3     -0.903667  2 H  s          
     2      0.781099  1 H  s                  4      0.781099  2 H  s          

 Vector    4  Occ=1.608539D-02  E= 0.000000D+00
              MO Center=  0.0D+00,  0.0D+00, -4.7D-07, r^2= 5.9D+00
   Bfn.  Coefficient  Atom+Function         Bfn.  Coefficient  Atom+Function  
  ----- ------------  ---------------      ----- ------------  ---------------
     1     -0.905275  1 H  s                  3      0.905275  2 H  s          
     2      0.791572  1 H  s                  4     -0.791572  2 H  s          


 Task  times  cpu:       11.1s     wall:       19.3s
 Summary of allocated global arrays
-----------------------------------
  No active global arrays



                         GA Statistics for process    0
                         ------------------------------

       create   destroy   get      put      acc     scatter   gather  read&inc
calls:   44       44     6.31e+06 1.33e+04 1.73e+04    0        0       11     
number of processes/call 1.00e+00 1.00e+00 1.00e+00 0.00e+00 0.00e+00
bytes total:             8.11e+08 2.21e+06 2.76e+06 0.00e+00 0.00e+00 8.80e+01
bytes remote:            0.00e+00 0.00e+00 0.00e+00 0.00e+00 0.00e+00 0.00e+00
Max memory consumed for GA by this process: 10624 bytes
MA_summarize_allocated_blocks: starting scan ...
MA_summarize_allocated_blocks: scan completed: 0 heap blocks, 0 stack blocks
MA usage statistics:

	allocation statistics:
					      heap	     stack
					      ----	     -----
	current number of blocks	         0	         0
	maximum number of blocks	        19	        17
	current total bytes		         0	         0
	maximum total bytes		   3204344	  22508664
	maximum total K-bytes		      3205	     22509
	maximum total M-bytes		         4	        23


                                NWChem Input Module
                                -------------------





                                     CITATION
                                     --------
                Please cite the following reference when publishing
                           results obtained with NWChem:

                 M. Valiev, E.J. Bylaska, N. Govind, K. Kowalski,
              T.P. Straatsma, H.J.J. van Dam, D. Wang, J. Nieplocha,
                        E. Apra, T.L. Windus, W.A. de Jong
                 "NWChem: a comprehensive and scalable open-source
                  solution for large scale molecular simulations"
                      Comput. Phys. Commun. 181, 1477 (2010)
                           doi:10.1016/j.cpc.2010.04.018

                                      AUTHORS
                                      -------
          E. Apra, E. J. Bylaska, W. A. de Jong, N. Govind, K. Kowalski,
       T. P. Straatsma, M. Valiev, H. J. J. van Dam, D. Wang, T. L. Windus,
        J. Hammond, J. Autschbach, K. Bhaskaran-Nair, J. Brabec, K. Lopata,
    S. A. Fischer, S. Krishnamoorthy, M. Jacquelin, W. Ma, M. Klemm, O. Villa,
      Y. Chen, V. Anisimov, F. Aquino, S. Hirata, M. T. Hackler, V. Konjkov,
      T. Risthaus, M. Malagoli, A. Marenich, A. Otero-de-la-Roza, J. Mullin,
        P. Nichols, R. Peverati, J. Pittner, Y. Zhao, P.-D. Fan, A. Fonari,
       M. Williamson, R. J. Harrison, J. R. Rehr, M. Dupuis, D. Silverstein,
    D. M. A. Smith, J. Nieplocha, V. Tipparaju, M. Krishnan, B. E. Van Kuiken,
        A. Vazquez-Mayagoitia, L. Jensen, M. Swart, Q. Wu, T. Van Voorhis,
     A. A. Auer, M. Nooijen, L. D. Crosby, E. Brown, G. Cisneros, G. I. Fann,
   H. Fruchtl, J. Garza, K. Hirao, R. A. Kendall, J. A. Nichols, K. Tsemekhman,
    K. Wolinski, J. Anchell, D. E. Bernholdt, P. Borowski, T. Clark, D. Clerc,
   H. Dachsel, M. J. O. Deegan, K. Dyall, D. Elwood, E. Glendening, M. Gutowski,
   A. C. Hess, J. Jaffe, B. G. Johnson, J. Ju, R. Kobayashi, R. Kutteh, Z. Lin,
   R. Littlefield, X. Long, B. Meng, T. Nakajima, S. Niu, L. Pollack, M. Rosing,
   K. Glaesemann, G. Sandrone, M. Stave, H. Taylor, G. Thomas, J. H. van Lenthe,
                               A. T. Wong, Z. Zhang.

 Total times  cpu:       11.1s     wall:       19.3s
