 argument  1 = input-wf.nw



============================== echo of input deck ==============================
echo
start wfn1_dat
geometry units au noautoz
  H 0 0 -2.49434600000000000000
  H 0 0  2.49434600000000000000
  symmetry cs
end
basis
  H library 6-31g
end
set wfn1:input_vectors "atomic"
set wfn1:solver "monte-carlo"
set wfn1:print_error F
set wfn1:t_initial 0.1
#set wfn1:corr_expr "wfn1_mx"
set wfn1:corr_expr "wfn1c"
set wfn1:t_bath 0.0
set wfn1:maxit  20000
task wfn1 energy
================================================================================


                                         
                                         


              Northwest Computational Chemistry Package (NWChem) 6.8
              ------------------------------------------------------


                    Environmental Molecular Sciences Laboratory
                       Pacific Northwest National Laboratory
                                Richland, WA 99352

                              Copyright (c) 1994-2015
                       Pacific Northwest National Laboratory
                            Battelle Memorial Institute

             NWChem is an open-source computational chemistry package
                        distributed under the terms of the
                      Educational Community License (ECL) 2.0
             A copy of the license is included with this distribution
                              in the LICENSE.TXT file

                                  ACKNOWLEDGMENT
                                  --------------

            This software and its documentation were developed at the
            EMSL at Pacific Northwest National Laboratory, a multiprogram
            national laboratory, operated for the U.S. Department of Energy
            by Battelle under Contract Number DE-AC05-76RL01830. Support
            for this work was provided by the Department of Energy Office
            of Biological and Environmental Research, Office of Basic
            Energy Sciences, and the Office of Advanced Scientific Computing.


           Job information
           ---------------

    hostname        = erato
    program         = ../../../bin/LINUX64/nwchem
    date            = Mon Mar  1 01:41:20 2021

    compiled        = Sun_Feb_28_18:02:42_2021
    source          = /home/hvandam/nwchem-1-wfn1
    nwchem branch   = Development
    nwchem revision = nwchem_on_git-124-gad72d19fff205e319ffbbf2bca37a04ded6ad57b
    ga revision     = nwchem_on_git-124-gad72d19
    use scalapack   = F
    input           = input-wf.nw
    prefix          = wfn1_dat.
    data base       = ./wfn1_dat.db
    status          = startup
    nproc           =        1
    time left       =     -1s



           Memory information
           ------------------

    heap     =   13107200 doubles =    100.0 Mbytes
    stack    =   13107197 doubles =    100.0 Mbytes
    global   =   26214400 doubles =    200.0 Mbytes (distinct from heap & stack)
    total    =   52428797 doubles =    400.0 Mbytes
    verify   = yes
    hardfail = no 


           Directory information
           ---------------------

  0 permanent = .
  0 scratch   = .




                                NWChem Input Module
                                -------------------


 Turning off AUTOSYM since
 SYMMETRY directive was detected!



                             Geometry "geometry" -> ""
                             -------------------------

 Output coordinates in a.u. (scale by  1.000000000 to convert to a.u.)

  No.       Tag          Charge          X              Y              Z
 ---- ---------------- ---------- -------------- -------------- --------------
    1 H                    1.0000     0.00000000     0.00000000    -2.49434600
    2 H                    1.0000     0.00000000     0.00000000     2.49434600

      Atomic Mass 
      ----------- 

      H                  1.007825


 Effective nuclear repulsion energy (a.u.)       0.2004533453

            Nuclear Dipole moment (a.u.) 
            ----------------------------
        X                 Y               Z
 ---------------- ---------------- ----------------
     0.0000000000     0.0000000000     0.0000000000

      Symmetry information
      --------------------

 Group name             Cs        
 Group number              2
 Group order               2
 No. of unique centers     1

      Symmetry unique atoms

     1


            XYZ format geometry
            -------------------
     2
 geometry
 H                     0.00000000     0.00000000    -1.31995115
 H                     0.00000000     0.00000000     1.31995115

                      Basis "ao basis" -> "" (cartesian)
                      -----
  H (Hydrogen)
  ------------
            Exponent  Coefficients 
       -------------- ---------------------------------------------------------
  1 S  1.87311370E+01  0.033495
  1 S  2.82539370E+00  0.234727
  1 S  6.40121700E-01  0.813757

  2 S  1.61277800E-01  1.000000



 Summary of "ao basis" -> "" (cartesian)
 ------------------------------------------------------------------------------
       Tag                 Description            Shells   Functions and Types
 ---------------- ------------------------------  ------  ---------------------
 H                           6-31g                   2        2   2s



                                NWChem WFN1 Module
                                ------------------



          No. of electrons :     2
           Alpha electrons :     1
            Beta electrons :     1
          Charge           :     0
          Spin multiplicity:     1

 HvD: wfn1_inpdft
 HvD: nquad_task =                     1
 HvD: iangquad   =                     0
 HvD: gridtype   = user      
 HvD: leb        =  T
 HvD: radgrid    = murakn    
 HvD: trunc_neigh=  T
 HvD: lssw       =  T
 HvD: whichssw   = erf1    
 HvD: mxnrad     =                     0
 HvD: mxnang     =                     0
 HVD: wfn1: movecs_in  = atomic                                                                                                                                                                                                                                                          
 HVD: wfn1: movecs_out = ./wfn1_dat.movecs                                                                                                                                                                                                                                               

      Superposition of Atomic Density Guess
      -------------------------------------

 Sum of atomic energies:          -0.99646508

      Non-variational initial energy
      ------------------------------

 Total energy =      -0.683584
 1-e energy   =      -1.397362
 2-e energy   =       0.513324
 HOMO         =      -0.222645
 LUMO         =      -0.157510

 iteration              energy           error
 ---------              ------           -----
         0         -0.90049893        0.080000
         1         -0.90710095        0.080000
         2         -0.90790352        0.080000
         3         -0.91479988        0.080000
         4         -0.91741086        0.080000
         5         -0.91892081        0.080000
         6         -0.92435468        0.080000
         7         -0.92629506        0.080000
         8         -0.92967828        0.080000
         9         -0.93138206        0.080000
        10         -0.93605000        0.080000
        11         -0.93849646        0.080000
        12         -0.93948324        0.080000
        13         -0.94424240        0.080000
        14         -0.94694091        0.080000
        15         -0.94918106        0.080000
        16         -0.95006163        0.080000
        17         -0.95225769        0.080000
        18         -0.95426329        0.080000
        19         -0.95593499        0.080000
        20         -0.95756225        0.080000
        21         -0.96099543        0.080000
        22         -0.96128717        0.080000
        23         -0.96172444        0.080000
        24         -0.96220312        0.080000
        25         -0.96324509        0.080000
        26         -0.96412366        0.080000
        27         -0.96490914        0.080000
        28         -0.96513344        0.080000
        29         -0.96520532        0.080000
        30         -0.96560519        0.080000
        31         -0.96599124        0.080000
        32         -0.96606734        0.080000
        33         -0.96608388        0.080000
        34         -0.96608997        0.080000
        35         -0.96616078        0.080000
        36         -0.96619512        0.050397
        37         -0.96622283        0.050397
        38         -0.96626041        0.050397
        39         -0.96628172        0.040000
        40         -0.96628180        0.040000
        41         -0.96628324        0.031748
        42         -0.96628700        0.031748
        43         -0.96628824        0.031748
        44         -0.96629769        0.031748
        45         -0.96629998        0.031748
        46         -0.96630159        0.025198
        47         -0.96631689        0.025198
        48         -0.96632012        0.020000
        49         -0.96632077        0.015874
        50         -0.96632609        0.015874
        51         -0.96632666        0.015874
        52         -0.96632738        0.012599
        53         -0.96632801        0.010000
        54         -0.96632813        0.010000
        55         -0.96632995        0.010000
        56         -0.96633042        0.007937
        57         -0.96633070        0.006300
        58         -0.96633095        0.006300
        59         -0.96633153        0.006300
        60         -0.96633170        0.006300
        61         -0.96633177        0.003969
        62         -0.96633182        0.002500
        63         -0.96633183        0.002500
        64         -0.96633183        0.001984
        65         -0.96633186        0.001984
        66         -0.96633194        0.001984
        67         -0.96633201        0.001984
        68         -0.96633212        0.001984
        69         -0.96633215        0.001575
        70         -0.96633217        0.001575
        71         -0.96633222        0.001575
        72         -0.96633224        0.001250
        73         -0.96633226        0.001250
        74         -0.96633229        0.001250
        75         -0.96633230        0.000992
        76         -0.96633230        0.000992
        77         -0.96633234        0.000992
        78         -0.96633234        0.000992
        79         -0.96633234        0.000992
        80         -0.96633235        0.000992
        81         -0.96633236        0.000992
        82         -0.96633237        0.000992
        83         -0.96633238        0.000992
        84         -0.96633238        0.000992
        85         -0.96633239        0.000787
        86         -0.96633240        0.000787
        87         -0.96633240        0.000787
        88         -0.96633241        0.000787
        89         -0.96633241        0.000625
        90         -0.96633242        0.000625
        91         -0.96633242        0.000625
        92         -0.96633242        0.000496
        93         -0.96633242        0.000496
        94         -0.96633242        0.000496
        95         -0.96633242        0.000496
        96         -0.96633242        0.000313
        97         -0.96633242        0.000313
        98         -0.96633242        0.000313
        99         -0.96633242        0.000313
       100         -0.96633243        0.000313
       101         -0.96633243        0.000248
       102         -0.96633243        0.000248
       103         -0.96633243        0.000248
       104         -0.96633243        0.000248
       105         -0.96633243        0.000248
       106         -0.96633243        0.000197
       107         -0.96633243        0.000197
       108         -0.96633243        0.000197
       109         -0.96633243        0.000197
       110         -0.96633243        0.000197
       111         -0.96633243        0.000197
       112         -0.96633243        0.000197
       113         -0.96633243        0.000197
       114         -0.96633243        0.000124
       115         -0.96633243        0.000124
       116         -0.96633243        0.000124
       117         -0.96633243        0.000124
       118         -0.96633243        0.000124
       119         -0.96633243        0.000124
       120         -0.96633243        0.000124
       121         -0.96633243        0.000124
       122         -0.96633243        0.000124
       123         -0.96633243        0.000098
       124         -0.96633243        0.000098
       125         -0.96633243        0.000098
       126         -0.96633243        0.000062
       127         -0.96633243        0.000062
       128         -0.96633243        0.000062
       129         -0.96633243        0.000062
       130         -0.96633243        0.000062
       131         -0.96633243        0.000062
       132         -0.96633243        0.000049
       133         -0.96633243        0.000039
       134         -0.96633243        0.000039
       135         -0.96633243        0.000039
       136         -0.96633243        0.000039
       137         -0.96633243        0.000039
       138         -0.96633243        0.000025
       139         -0.96633243        0.000025
       140         -0.96633243        0.000025
       141         -0.96633243        0.000025
       142         -0.96633243        0.000025
       143         -0.96633243        0.000025
       144         -0.96633243        0.000020
       145         -0.96633243        0.000020
       146         -0.96633243        0.000020
       147         -0.96633243        0.000020
       148         -0.96633243        0.000020
       149         -0.96633243        0.000016
       150         -0.96633243        0.000016
       151         -0.96633243        0.000016
       152         -0.96633243        0.000016
       153         -0.96633243        0.000016
       154         -0.96633243        0.000012
       155         -0.96633243        0.000010
       156         -0.96633243        0.000010
       157         -0.96633243        0.000008
       158         -0.96633243        0.000008
       159         -0.96633243        0.000006
       160         -0.96633243        0.000006
       161         -0.96633243        0.000006
       162         -0.96633243        0.000006
       163         -0.96633243        0.000005
       164         -0.96633243        0.000005
       165         -0.96633243        0.000005
       166         -0.96633243        0.000005
       167         -0.96633243        0.000004
       168         -0.96633243        0.000004
       169         -0.96633243        0.000003
       170         -0.96633243        0.000003
       171         -0.96633243        0.000003
       172         -0.96633243        0.000003
       173         -0.96633243        0.000003
       174         -0.96633243        0.000003
       175         -0.96633243        0.000003
       176         -0.96633243        0.000003
       177         -0.96633243        0.000003
       178         -0.96633243        0.000003
       179         -0.96633243        0.000003
       180         -0.96633243        0.000003
       181         -0.96633243        0.000002
       182         -0.96633243        0.000002
       183         -0.96633243        0.000002
       184         -0.96633243        0.000001
       185         -0.96633243        0.000001
       186         -0.96633243        0.000001
       187         -0.96633243        0.000001
       188         -0.96633243        0.000001
       189         -0.96633243        0.000001
       190         -0.96633243        0.000001
       191         -0.96633243        0.000001
       192         -0.96633243        0.000001
       193         -0.96633243        0.000001
       194         -0.96633243        0.000001
       195         -0.96633243        0.000001
       196         -0.96633243        0.000001
       197         -0.96633243        0.000001

 Reached Convergence

 WFN1                     :
 --------------------------
 Total WFN1 energy  =          -0.9663324312
 1-Electron energy  =          -1.3362553379
 2-Electron energy  =           0.3949041608
 Correlation energy =          -0.2254345994
 DFT XC energy      =           0.0000000000
 Entropy energy     =           0.0000000000
 Nuclear energy     =           0.2004533453

 conventional Hartree-Fock:
 --------------------------
 Total SCF energy  =          -0.8586432224
 2-Electron energy =           0.5025933696

                WFN1 Final Natural orbital energies and occupations
                ---------------------------------------------------

              Alpha       Beta            Alpha       Beta  
            --------    --------        --------    --------
       1      0.0000      0.0000          0.6097      0.6097
       2      0.0000      0.0000          0.3574      0.3574
       3      0.0000      0.0000          0.0188      0.0188
       4      0.0000      0.0000          0.0141      0.0141

             WFN1 Final Correlation function energies and occupations
             --------------------------------------------------------

              Alpha       Beta            Alpha       Beta  
            --------    --------        --------    --------
       1      0.0000      0.0000          1.0000      1.0000
       2      0.0000      0.0000          0.0000      0.0000
       3      0.0000      0.0000          0.0000      0.0000
       4      0.0000      0.0000          0.0000      0.0000

                WFN1 Final alpha-alpha 2-matrix occupation numbers
                --------------------------------------------------


 global array: g_momo1[1:4,1:4],  handle: -990 

            1           2           3           4  
       ----------- ----------- ----------- -----------
   1      -0.00000     0.00000    -0.00000    -0.00000
   2       0.00000     0.00000    -0.00000     0.00000
   3       0.00000    -0.00000     0.00000     0.00000
   4       0.00000     0.00000     0.00000     0.00000

                 WFN1 Final beta-beta 2-matrix occupation numbers
                 ------------------------------------------------


 global array: g_momo2[1:4,1:4],  handle: -989 

            1           2           3           4  
       ----------- ----------- ----------- -----------
   1      -0.00000     0.00000    -0.00000    -0.00000
   2       0.00000     0.00000    -0.00000     0.00000
   3       0.00000    -0.00000     0.00000     0.00000
   4       0.00000     0.00000     0.00000     0.00000

                  WFN1 Final alpha Correlation Function Analysis
                  ----------------------------------------------


 global array: Ca[1:4,1:4],  handle: -977 

                     1                       2                       3                       4  
       ----------------------- ----------------------- ----------------------- -----------------------
   1       0.74356,    0.23835     0.58410,    0.17855    -0.12244,    0.00760    -0.04695,   -0.00046
   2       0.41411,   -0.43117    -0.54652,    0.57027    -0.09234,    0.10072    -0.00389,   -0.00552
   3      -0.07180,   -0.11675     0.04435,    0.02346    -0.59753,   -0.61206     0.36709,    0.33509
   4      -0.02210,    0.11679    -0.02224,    0.00652     0.00174,    0.48438     0.05631,    0.86460

                   WFN1 Final beta Correlation Function Analysis
                   ---------------------------------------------


 global array: Cb[1:4,1:4],  handle: -976 

                     1                       2                       3                       4  
       ----------------------- ----------------------- ----------------------- -----------------------
   1       0.74356,    0.23835     0.58410,    0.17855    -0.12244,    0.00760    -0.04695,   -0.00046
   2       0.41411,   -0.43117    -0.54652,    0.57027    -0.09234,    0.10072    -0.00389,   -0.00552
   3      -0.07180,   -0.11675     0.04435,    0.02346    -0.59753,   -0.61206     0.36709,    0.33509
   4      -0.02210,    0.11679    -0.02224,    0.00652     0.00174,    0.48438     0.05631,    0.86460

                     WFN1 Final Alpha Natural Orbital Analysis
                     -----------------------------------------

 Vector    1  Occ=6.096932D-01  E= 0.000000D+00
              MO Center=  0.0D+00,  0.0D+00,  4.0D-07, r^2= 2.5D+00
   Bfn.  Coefficient  Atom+Function         Bfn.  Coefficient  Atom+Function  
  ----- ------------  ---------------      ----- ------------  ---------------
     2     -0.501912  1 H  s                  4     -0.501912  2 H  s          
     1     -0.233027  1 H  s                  3     -0.233027  2 H  s          

 Vector    2  Occ=3.573928D-01  E= 0.000000D+00
              MO Center=  0.0D+00,  0.0D+00, -4.1D-07, r^2= 2.7D+00
   Bfn.  Coefficient  Atom+Function         Bfn.  Coefficient  Atom+Function  
  ----- ------------  ---------------      ----- ------------  ---------------
     2     -0.519157  1 H  s                  4      0.519157  2 H  s          
     1     -0.283522  1 H  s                  3      0.283522  2 H  s          

 Vector    3  Occ=1.878657D-02  E= 0.000000D+00
              MO Center=  0.0D+00,  0.0D+00, -1.1D-06, r^2= 2.6D+00
   Bfn.  Coefficient  Atom+Function         Bfn.  Coefficient  Atom+Function  
  ----- ------------  ---------------      ----- ------------  ---------------
     1     -0.891992  1 H  s                  3     -0.891992  2 H  s          
     2      0.705339  1 H  s                  4      0.705339  2 H  s          

 Vector    4  Occ=1.412740D-02  E= 0.000000D+00
              MO Center=  0.0D+00,  0.0D+00,  1.1D-06, r^2= 3.3D+00
   Bfn.  Coefficient  Atom+Function         Bfn.  Coefficient  Atom+Function  
  ----- ------------  ---------------      ----- ------------  ---------------
     1     -0.922425  1 H  s                  3      0.922426  2 H  s          
     2      0.897823  1 H  s                  4     -0.897824  2 H  s          


                     WFN1 Final Beta Natural Orbital Analysis
                     ----------------------------------------

 Vector    1  Occ=6.096932D-01  E= 0.000000D+00
              MO Center=  0.0D+00,  0.0D+00,  4.0D-07, r^2= 2.5D+00
   Bfn.  Coefficient  Atom+Function         Bfn.  Coefficient  Atom+Function  
  ----- ------------  ---------------      ----- ------------  ---------------
     2     -0.501912  1 H  s                  4     -0.501912  2 H  s          
     1     -0.233027  1 H  s                  3     -0.233027  2 H  s          

 Vector    2  Occ=3.573928D-01  E= 0.000000D+00
              MO Center=  0.0D+00,  0.0D+00, -4.1D-07, r^2= 2.7D+00
   Bfn.  Coefficient  Atom+Function         Bfn.  Coefficient  Atom+Function  
  ----- ------------  ---------------      ----- ------------  ---------------
     2     -0.519157  1 H  s                  4      0.519157  2 H  s          
     1     -0.283522  1 H  s                  3      0.283522  2 H  s          

 Vector    3  Occ=1.878657D-02  E= 0.000000D+00
              MO Center=  0.0D+00,  0.0D+00, -1.1D-06, r^2= 2.6D+00
   Bfn.  Coefficient  Atom+Function         Bfn.  Coefficient  Atom+Function  
  ----- ------------  ---------------      ----- ------------  ---------------
     1     -0.891992  1 H  s                  3     -0.891992  2 H  s          
     2      0.705339  1 H  s                  4      0.705339  2 H  s          

 Vector    4  Occ=1.412740D-02  E= 0.000000D+00
              MO Center=  0.0D+00,  0.0D+00,  1.1D-06, r^2= 3.3D+00
   Bfn.  Coefficient  Atom+Function         Bfn.  Coefficient  Atom+Function  
  ----- ------------  ---------------      ----- ------------  ---------------
     1     -0.922425  1 H  s                  3      0.922426  2 H  s          
     2      0.897823  1 H  s                  4     -0.897824  2 H  s          


 Task  times  cpu:        9.2s     wall:       12.4s
 Summary of allocated global arrays
-----------------------------------
  No active global arrays



                         GA Statistics for process    0
                         ------------------------------

       create   destroy   get      put      acc     scatter   gather  read&inc
calls:   44       44     6.94e+06 1.46e+04 1.90e+04    0        0       11     
number of processes/call 1.00e+00 1.00e+00 1.00e+00 0.00e+00 0.00e+00
bytes total:             8.92e+08 2.43e+06 3.04e+06 0.00e+00 0.00e+00 8.80e+01
bytes remote:            0.00e+00 0.00e+00 0.00e+00 0.00e+00 0.00e+00 0.00e+00
Max memory consumed for GA by this process: 10624 bytes
MA_summarize_allocated_blocks: starting scan ...
MA_summarize_allocated_blocks: scan completed: 0 heap blocks, 0 stack blocks
MA usage statistics:

	allocation statistics:
					      heap	     stack
					      ----	     -----
	current number of blocks	         0	         0
	maximum number of blocks	        19	        17
	current total bytes		         0	         0
	maximum total bytes		   3204328	  22508616
	maximum total K-bytes		      3205	     22509
	maximum total M-bytes		         4	        23


                                NWChem Input Module
                                -------------------





                                     CITATION
                                     --------
                Please cite the following reference when publishing
                           results obtained with NWChem:

                 M. Valiev, E.J. Bylaska, N. Govind, K. Kowalski,
              T.P. Straatsma, H.J.J. van Dam, D. Wang, J. Nieplocha,
                        E. Apra, T.L. Windus, W.A. de Jong
                 "NWChem: a comprehensive and scalable open-source
                  solution for large scale molecular simulations"
                      Comput. Phys. Commun. 181, 1477 (2010)
                           doi:10.1016/j.cpc.2010.04.018

                                      AUTHORS
                                      -------
          E. Apra, E. J. Bylaska, W. A. de Jong, N. Govind, K. Kowalski,
       T. P. Straatsma, M. Valiev, H. J. J. van Dam, D. Wang, T. L. Windus,
        J. Hammond, J. Autschbach, K. Bhaskaran-Nair, J. Brabec, K. Lopata,
    S. A. Fischer, S. Krishnamoorthy, M. Jacquelin, W. Ma, M. Klemm, O. Villa,
      Y. Chen, V. Anisimov, F. Aquino, S. Hirata, M. T. Hackler, V. Konjkov,
      T. Risthaus, M. Malagoli, A. Marenich, A. Otero-de-la-Roza, J. Mullin,
        P. Nichols, R. Peverati, J. Pittner, Y. Zhao, P.-D. Fan, A. Fonari,
       M. Williamson, R. J. Harrison, J. R. Rehr, M. Dupuis, D. Silverstein,
    D. M. A. Smith, J. Nieplocha, V. Tipparaju, M. Krishnan, B. E. Van Kuiken,
        A. Vazquez-Mayagoitia, L. Jensen, M. Swart, Q. Wu, T. Van Voorhis,
     A. A. Auer, M. Nooijen, L. D. Crosby, E. Brown, G. Cisneros, G. I. Fann,
   H. Fruchtl, J. Garza, K. Hirao, R. A. Kendall, J. A. Nichols, K. Tsemekhman,
    K. Wolinski, J. Anchell, D. E. Bernholdt, P. Borowski, T. Clark, D. Clerc,
   H. Dachsel, M. J. O. Deegan, K. Dyall, D. Elwood, E. Glendening, M. Gutowski,
   A. C. Hess, J. Jaffe, B. G. Johnson, J. Ju, R. Kobayashi, R. Kutteh, Z. Lin,
   R. Littlefield, X. Long, B. Meng, T. Nakajima, S. Niu, L. Pollack, M. Rosing,
   K. Glaesemann, G. Sandrone, M. Stave, H. Taylor, G. Thomas, J. H. van Lenthe,
                               A. T. Wong, Z. Zhang.

 Total times  cpu:        9.2s     wall:       12.4s
