 argument  1 = input-wf.nw



============================== echo of input deck ==============================
echo
start wfn1_dat
geometry units au noautoz
  H 0 0 -1.64434600000000000000
  H 0 0  1.64434600000000000000
  symmetry cs
end
basis
  H library 6-31g
end
set wfn1:input_vectors "atomic"
set wfn1:solver "monte-carlo"
set wfn1:print_error F
set wfn1:t_initial 0.1
#set wfn1:corr_expr "wfn1_mx"
set wfn1:corr_expr "wfn1c"
set wfn1:t_bath 0.0
set wfn1:maxit  20000
task wfn1 energy
================================================================================


                                         
                                         


              Northwest Computational Chemistry Package (NWChem) 6.8
              ------------------------------------------------------


                    Environmental Molecular Sciences Laboratory
                       Pacific Northwest National Laboratory
                                Richland, WA 99352

                              Copyright (c) 1994-2015
                       Pacific Northwest National Laboratory
                            Battelle Memorial Institute

             NWChem is an open-source computational chemistry package
                        distributed under the terms of the
                      Educational Community License (ECL) 2.0
             A copy of the license is included with this distribution
                              in the LICENSE.TXT file

                                  ACKNOWLEDGMENT
                                  --------------

            This software and its documentation were developed at the
            EMSL at Pacific Northwest National Laboratory, a multiprogram
            national laboratory, operated for the U.S. Department of Energy
            by Battelle under Contract Number DE-AC05-76RL01830. Support
            for this work was provided by the Department of Energy Office
            of Biological and Environmental Research, Office of Basic
            Energy Sciences, and the Office of Advanced Scientific Computing.


           Job information
           ---------------

    hostname        = erato
    program         = ../../../bin/LINUX64/nwchem
    date            = Mon Mar  1 01:36:24 2021

    compiled        = Sun_Feb_28_18:02:42_2021
    source          = /home/hvandam/nwchem-1-wfn1
    nwchem branch   = Development
    nwchem revision = nwchem_on_git-124-gad72d19fff205e319ffbbf2bca37a04ded6ad57b
    ga revision     = nwchem_on_git-124-gad72d19
    use scalapack   = F
    input           = input-wf.nw
    prefix          = wfn1_dat.
    data base       = ./wfn1_dat.db
    status          = startup
    nproc           =        1
    time left       =     -1s



           Memory information
           ------------------

    heap     =   13107200 doubles =    100.0 Mbytes
    stack    =   13107197 doubles =    100.0 Mbytes
    global   =   26214400 doubles =    200.0 Mbytes (distinct from heap & stack)
    total    =   52428797 doubles =    400.0 Mbytes
    verify   = yes
    hardfail = no 


           Directory information
           ---------------------

  0 permanent = .
  0 scratch   = .




                                NWChem Input Module
                                -------------------


 Turning off AUTOSYM since
 SYMMETRY directive was detected!



                             Geometry "geometry" -> ""
                             -------------------------

 Output coordinates in a.u. (scale by  1.000000000 to convert to a.u.)

  No.       Tag          Charge          X              Y              Z
 ---- ---------------- ---------- -------------- -------------- --------------
    1 H                    1.0000     0.00000000     0.00000000    -1.64434600
    2 H                    1.0000     0.00000000     0.00000000     1.64434600

      Atomic Mass 
      ----------- 

      H                  1.007825


 Effective nuclear repulsion energy (a.u.)       0.3040722573

            Nuclear Dipole moment (a.u.) 
            ----------------------------
        X                 Y               Z
 ---------------- ---------------- ----------------
     0.0000000000     0.0000000000     0.0000000000

      Symmetry information
      --------------------

 Group name             Cs        
 Group number              2
 Group order               2
 No. of unique centers     1

      Symmetry unique atoms

     1


            XYZ format geometry
            -------------------
     2
 geometry
 H                     0.00000000     0.00000000    -0.87015049
 H                     0.00000000     0.00000000     0.87015049

                      Basis "ao basis" -> "" (cartesian)
                      -----
  H (Hydrogen)
  ------------
            Exponent  Coefficients 
       -------------- ---------------------------------------------------------
  1 S  1.87311370E+01  0.033495
  1 S  2.82539370E+00  0.234727
  1 S  6.40121700E-01  0.813757

  2 S  1.61277800E-01  1.000000



 Summary of "ao basis" -> "" (cartesian)
 ------------------------------------------------------------------------------
       Tag                 Description            Shells   Functions and Types
 ---------------- ------------------------------  ------  ---------------------
 H                           6-31g                   2        2   2s



                                NWChem WFN1 Module
                                ------------------



          No. of electrons :     2
           Alpha electrons :     1
            Beta electrons :     1
          Charge           :     0
          Spin multiplicity:     1

 HvD: wfn1_inpdft
 HvD: nquad_task =                     1
 HvD: iangquad   =                     0
 HvD: gridtype   = user      
 HvD: leb        =  T
 HvD: radgrid    = murakn    
 HvD: trunc_neigh=  T
 HvD: lssw       =  T
 HvD: whichssw   = erf1    
 HvD: mxnrad     =                     0
 HvD: mxnang     =                     0
 HVD: wfn1: movecs_in  = atomic                                                                                                                                                                                                                                                          
 HVD: wfn1: movecs_out = ./wfn1_dat.movecs                                                                                                                                                                                                                                               

      Superposition of Atomic Density Guess
      -------------------------------------

 Sum of atomic energies:          -0.99646508

      Non-variational initial energy
      ------------------------------

 Total energy =      -0.706264
 1-e energy   =      -1.602381
 2-e energy   =       0.592045
 HOMO         =      -0.298830
 LUMO         =      -0.070417

 iteration              energy           error
 ---------              ------           -----
         0         -0.97345925        0.080000
         1         -0.97748894        0.080000
         2         -0.98045902        0.080000
         3         -0.98285209        0.080000
         4         -0.98549515        0.080000
         5         -0.98596150        0.080000
         6         -0.98718341        0.080000
         7         -0.99235363        0.080000
         8         -0.99549348        0.080000
         9         -0.99962576        0.080000
        10         -1.00128805        0.080000
        11         -1.00154418        0.080000
        12         -1.00201299        0.080000
        13         -1.00356815        0.080000
        14         -1.00419510        0.080000
        15         -1.00506958        0.080000
        16         -1.00540344        0.080000
        17         -1.00554557        0.080000
        18         -1.00731369        0.080000
        19         -1.00848267        0.080000
        20         -1.00852173        0.080000
        21         -1.00865595        0.080000
        22         -1.00875274        0.080000
        23         -1.00911005        0.080000
        24         -1.00919043        0.080000
        25         -1.00930764        0.080000
        26         -1.01005908        0.080000
        27         -1.01034197        0.080000
        28         -1.01046426        0.080000
        29         -1.01060729        0.080000
        30         -1.01086840        0.080000
        31         -1.01090345        0.080000
        32         -1.01092901        0.080000
        33         -1.01126407        0.080000
        34         -1.01132022        0.080000
        35         -1.01139955        0.080000
        36         -1.01143675        0.080000
        37         -1.01172877        0.080000
        38         -1.01173205        0.080000
        39         -1.01210917        0.080000
        40         -1.01212589        0.080000
        41         -1.01238945        0.080000
        42         -1.01243221        0.080000
        43         -1.01247126        0.080000
        44         -1.01260308        0.080000
        45         -1.01266060        0.080000
        46         -1.01267095        0.080000
        47         -1.01269933        0.080000
        48         -1.01272148        0.080000
        49         -1.01279369        0.063496
        50         -1.01280417        0.050397
        51         -1.01280987        0.031748
        52         -1.01281490        0.031748
        53         -1.01282337        0.031748
        54         -1.01282595        0.031748
        55         -1.01282975        0.031748
        56         -1.01283100        0.031748
        57         -1.01283601        0.031748
        58         -1.01283720        0.031748
        59         -1.01283874        0.031748
        60         -1.01284139        0.031748
        61         -1.01284331        0.020000
        62         -1.01284711        0.020000
        63         -1.01284778        0.020000
        64         -1.01285283        0.020000
        65         -1.01285641        0.015874
        66         -1.01285678        0.012599
        67         -1.01285679        0.010000
        68         -1.01285689        0.007937
        69         -1.01285746        0.007937
        70         -1.01285746        0.007937
        71         -1.01285747        0.007937
        72         -1.01285824        0.007937
        73         -1.01285943        0.007937
        74         -1.01286017        0.007937
        75         -1.01286057        0.005000
        76         -1.01286061        0.005000
        77         -1.01286159        0.005000
        78         -1.01286176        0.005000
        79         -1.01286195        0.005000
        80         -1.01286213        0.005000
        81         -1.01286223        0.005000
        82         -1.01286239        0.005000
        83         -1.01286262        0.005000
        84         -1.01286285        0.003969
        85         -1.01286286        0.003969
        86         -1.01286291        0.003969
        87         -1.01286341        0.003969
        88         -1.01286353        0.003969
        89         -1.01286401        0.003969
        90         -1.01286437        0.003969
        91         -1.01286454        0.003969
        92         -1.01286459        0.003969
        93         -1.01286488        0.003969
        94         -1.01286502        0.003969
        95         -1.01286504        0.003969
        96         -1.01286516        0.003969
        97         -1.01286518        0.003969
        98         -1.01286551        0.003969
        99         -1.01286570        0.003969
       100         -1.01286585        0.003969
       101         -1.01286601        0.003969
       102         -1.01286626        0.003969
       103         -1.01286634        0.003969
       104         -1.01286639        0.003969
       105         -1.01286663        0.003969
       106         -1.01286667        0.003150
       107         -1.01286670        0.003150
       108         -1.01286675        0.003150
       109         -1.01286678        0.003150
       110         -1.01286682        0.003150
       111         -1.01286703        0.002500
       112         -1.01286704        0.002500
       113         -1.01286705        0.002500
       114         -1.01286707        0.002500
       115         -1.01286718        0.001984
       116         -1.01286732        0.001984
       117         -1.01286737        0.001984
       118         -1.01286747        0.001984
       119         -1.01286758        0.001984
       120         -1.01286760        0.001984
       121         -1.01286773        0.001984
       122         -1.01286775        0.001984
       123         -1.01286777        0.001984
       124         -1.01286784        0.001984
       125         -1.01286787        0.001984
       126         -1.01286799        0.001984
       127         -1.01286803        0.001984
       128         -1.01286808        0.001984
       129         -1.01286810        0.001984
       130         -1.01286811        0.001984
       131         -1.01286814        0.001984
       132         -1.01286819        0.001984
       133         -1.01286823        0.001984
       134         -1.01286825        0.001984
       135         -1.01286826        0.001575
       136         -1.01286827        0.001575
       137         -1.01286830        0.001575
       138         -1.01286830        0.001575
       139         -1.01286831        0.001575
       140         -1.01286837        0.001250
       141         -1.01286837        0.001250
       142         -1.01286837        0.001250
       143         -1.01286841        0.001250
       144         -1.01286845        0.001250
       145         -1.01286847        0.001250
       146         -1.01286848        0.001250
       147         -1.01286850        0.001250
       148         -1.01286853        0.001250
       149         -1.01286855        0.001250
       150         -1.01286856        0.000992
       151         -1.01286857        0.000992
       152         -1.01286857        0.000992
       153         -1.01286858        0.000992
       154         -1.01286859        0.000992
       155         -1.01286860        0.000992
       156         -1.01286860        0.000992
       157         -1.01286862        0.000992
       158         -1.01286862        0.000992
       159         -1.01286863        0.000992
       160         -1.01286864        0.000992
       161         -1.01286865        0.000992
       162         -1.01286865        0.000992
       163         -1.01286866        0.000787
       164         -1.01286866        0.000787
       165         -1.01286866        0.000625
       166         -1.01286867        0.000625
       167         -1.01286867        0.000496
       168         -1.01286867        0.000496
       169         -1.01286867        0.000496
       170         -1.01286867        0.000496
       171         -1.01286868        0.000496
       172         -1.01286868        0.000496
       173         -1.01286869        0.000496
       174         -1.01286869        0.000496
       175         -1.01286869        0.000496
       176         -1.01286869        0.000496
       177         -1.01286869        0.000394
       178         -1.01286869        0.000313
       179         -1.01286869        0.000248
       180         -1.01286869        0.000248
       181         -1.01286870        0.000248
       182         -1.01286870        0.000248
       183         -1.01286870        0.000197
       184         -1.01286870        0.000197
       185         -1.01286870        0.000197
       186         -1.01286870        0.000197
       187         -1.01286870        0.000197
       188         -1.01286870        0.000197
       189         -1.01286870        0.000156
       190         -1.01286870        0.000156
       191         -1.01286870        0.000156
       192         -1.01286870        0.000124
       193         -1.01286870        0.000124
       194         -1.01286870        0.000124
       195         -1.01286870        0.000124
       196         -1.01286870        0.000124
       197         -1.01286870        0.000124
       198         -1.01286870        0.000124
       199         -1.01286870        0.000124
       200         -1.01286870        0.000124
       201         -1.01286870        0.000098
       202         -1.01286870        0.000098
       203         -1.01286870        0.000098
       204         -1.01286870        0.000098
       205         -1.01286870        0.000098
       206         -1.01286870        0.000098
       207         -1.01286870        0.000098
       208         -1.01286870        0.000098
       209         -1.01286870        0.000098
       210         -1.01286870        0.000098
       211         -1.01286870        0.000098
       212         -1.01286870        0.000098
       213         -1.01286870        0.000098
       214         -1.01286870        0.000098
       215         -1.01286870        0.000098
       216         -1.01286870        0.000098
       217         -1.01286870        0.000098
       218         -1.01286870        0.000098
       219         -1.01286870        0.000098
       220         -1.01286870        0.000098
       221         -1.01286870        0.000098
       222         -1.01286870        0.000098
       223         -1.01286870        0.000098
       224         -1.01286870        0.000098
       225         -1.01286870        0.000062
       226         -1.01286870        0.000062
       227         -1.01286870        0.000062
       228         -1.01286870        0.000062
       229         -1.01286870        0.000062
       230         -1.01286870        0.000062
       231         -1.01286870        0.000062
       232         -1.01286871        0.000062
       233         -1.01286871        0.000062
       234         -1.01286871        0.000062
       235         -1.01286871        0.000062
       236         -1.01286871        0.000049
       237         -1.01286871        0.000049
       238         -1.01286871        0.000049
       239         -1.01286871        0.000049
       240         -1.01286871        0.000049
       241         -1.01286871        0.000049
       242         -1.01286871        0.000049
       243         -1.01286871        0.000049
       244         -1.01286871        0.000049
       245         -1.01286871        0.000049
       246         -1.01286871        0.000049
       247         -1.01286871        0.000049
       248         -1.01286871        0.000049
       249         -1.01286871        0.000049
       250         -1.01286871        0.000049
       251         -1.01286871        0.000049
       252         -1.01286871        0.000039
       253         -1.01286871        0.000039
       254         -1.01286871        0.000031
       255         -1.01286871        0.000031
       256         -1.01286871        0.000031
       257         -1.01286871        0.000031
       258         -1.01286871        0.000031
       259         -1.01286871        0.000025
       260         -1.01286871        0.000025
       261         -1.01286871        0.000025
       262         -1.01286871        0.000025
       263         -1.01286871        0.000025
       264         -1.01286871        0.000025
       265         -1.01286871        0.000025
       266         -1.01286871        0.000025
       267         -1.01286871        0.000025
       268         -1.01286871        0.000020
       269         -1.01286871        0.000020
       270         -1.01286871        0.000020
       271         -1.01286871        0.000020
       272         -1.01286871        0.000020
       273         -1.01286871        0.000020
       274         -1.01286871        0.000020
       275         -1.01286871        0.000020
       276         -1.01286871        0.000020
       277         -1.01286871        0.000020
       278         -1.01286871        0.000016
       279         -1.01286871        0.000016
       280         -1.01286871        0.000016
       281         -1.01286871        0.000016
       282         -1.01286871        0.000016
       283         -1.01286871        0.000016
       284         -1.01286871        0.000016
       285         -1.01286871        0.000016
       286         -1.01286871        0.000016
       287         -1.01286871        0.000016
       288         -1.01286871        0.000016
       289         -1.01286871        0.000016
       290         -1.01286871        0.000016
       291         -1.01286871        0.000016
       292         -1.01286871        0.000016
       293         -1.01286871        0.000016
       294         -1.01286871        0.000016
       295         -1.01286871        0.000016
       296         -1.01286871        0.000016
       297         -1.01286871        0.000016
       298         -1.01286871        0.000016
       299         -1.01286871        0.000016
       300         -1.01286871        0.000016
       301         -1.01286871        0.000012
       302         -1.01286871        0.000012
       303         -1.01286871        0.000012
       304         -1.01286871        0.000012
       305         -1.01286871        0.000012
       306         -1.01286871        0.000012
       307         -1.01286871        0.000012
       308         -1.01286871        0.000012
       309         -1.01286871        0.000012
       310         -1.01286871        0.000012
       311         -1.01286871        0.000012
       312         -1.01286871        0.000012
       313         -1.01286871        0.000012
       314         -1.01286871        0.000012
       315         -1.01286871        0.000012
       316         -1.01286871        0.000012
       317         -1.01286871        0.000012
       318         -1.01286871        0.000012
       319         -1.01286871        0.000012
       320         -1.01286871        0.000012
       321         -1.01286871        0.000012
       322         -1.01286871        0.000012
       323         -1.01286871        0.000012
       324         -1.01286871        0.000012
       325         -1.01286871        0.000012
       326         -1.01286871        0.000012
       327         -1.01286871        0.000012
       328         -1.01286871        0.000012
       329         -1.01286871        0.000010
       330         -1.01286871        0.000010
       331         -1.01286871        0.000010
       332         -1.01286871        0.000010
       333         -1.01286871        0.000010
       334         -1.01286871        0.000010
       335         -1.01286871        0.000010
       336         -1.01286871        0.000010
       337         -1.01286871        0.000010
       338         -1.01286871        0.000010
       339         -1.01286871        0.000010
       340         -1.01286871        0.000010
       341         -1.01286871        0.000010
       342         -1.01286871        0.000010
       343         -1.01286871        0.000010
       344         -1.01286871        0.000006
       345         -1.01286871        0.000006
       346         -1.01286871        0.000006
       347         -1.01286871        0.000006
       348         -1.01286871        0.000006
       349         -1.01286871        0.000006
       350         -1.01286871        0.000006
       351         -1.01286871        0.000006
       352         -1.01286871        0.000006
       353         -1.01286871        0.000006
       354         -1.01286871        0.000006
       355         -1.01286871        0.000006
       356         -1.01286871        0.000006
       357         -1.01286871        0.000006
       358         -1.01286871        0.000006
       359         -1.01286871        0.000006
       360         -1.01286871        0.000006
       361         -1.01286871        0.000006
       362         -1.01286871        0.000006
       363         -1.01286871        0.000006
       364         -1.01286871        0.000006
       365         -1.01286871        0.000006
       366         -1.01286871        0.000006
       367         -1.01286871        0.000006
       368         -1.01286871        0.000005
       369         -1.01286871        0.000005
       370         -1.01286871        0.000005
       371         -1.01286871        0.000005
       372         -1.01286871        0.000005
       373         -1.01286871        0.000005
       374         -1.01286871        0.000005
       375         -1.01286871        0.000005
       376         -1.01286871        0.000005
       377         -1.01286871        0.000005
       378         -1.01286871        0.000005
       379         -1.01286871        0.000005
       380         -1.01286871        0.000004
       381         -1.01286871        0.000002
       382         -1.01286871        0.000002
       383         -1.01286871        0.000002
       384         -1.01286871        0.000002
       385         -1.01286871        0.000002
       386         -1.01286871        0.000002
       387         -1.01286871        0.000002
       388         -1.01286871        0.000002
       389         -1.01286871        0.000002
       390         -1.01286871        0.000002
       391         -1.01286871        0.000002
       392         -1.01286871        0.000002
       393         -1.01286871        0.000002
       394         -1.01286871        0.000002
       395         -1.01286871        0.000002
       396         -1.01286871        0.000002
       397         -1.01286871        0.000001
       398         -1.01286871        0.000001
       399         -1.01286871        0.000001
       400         -1.01286871        0.000001
       401         -1.01286871        0.000001
       402         -1.01286871        0.000001
       403         -1.01286871        0.000001
       404         -1.01286871        0.000001
       405         -1.01286871        0.000001

 Reached Convergence

 WFN1                     :
 --------------------------
 Total WFN1 energy  =          -1.0128687060
 1-Electron energy  =          -1.6088479826
 2-Electron energy  =           0.4478116685
 Correlation energy =          -0.1559046492
 DFT XC energy      =           0.0000000000
 Entropy energy     =           0.0000000000
 Nuclear energy     =           0.3040722573

 conventional Hartree-Fock:
 --------------------------
 Total SCF energy  =          -0.9240819564
 2-Electron energy =           0.5365984181

                WFN1 Final Natural orbital energies and occupations
                ---------------------------------------------------

              Alpha       Beta            Alpha       Beta  
            --------    --------        --------    --------
       1      0.0000      0.0000          0.8155      0.8155
       2      0.0000      0.0000          0.1611      0.1611
       3      0.0000      0.0000          0.0121      0.0121
       4      0.0000      0.0000          0.0113      0.0113

             WFN1 Final Correlation function energies and occupations
             --------------------------------------------------------

              Alpha       Beta            Alpha       Beta  
            --------    --------        --------    --------
       1      0.0000      0.0000          1.0000      1.0000
       2      0.0000      0.0000          0.0000      0.0000
       3      0.0000      0.0000          0.0000      0.0000
       4      0.0000      0.0000          0.0000      0.0000

                WFN1 Final alpha-alpha 2-matrix occupation numbers
                --------------------------------------------------


 global array: g_momo1[1:4,1:4],  handle: -990 

            1           2           3           4  
       ----------- ----------- ----------- -----------
   1       0.00000     0.00000    -0.00000     0.00000
   2       0.00000     0.00000    -0.00000     0.00000
   3      -0.00000     0.00000     0.00000     0.00000
   4       0.00000     0.00000    -0.00000     0.00000

                 WFN1 Final beta-beta 2-matrix occupation numbers
                 ------------------------------------------------


 global array: g_momo2[1:4,1:4],  handle: -989 

            1           2           3           4  
       ----------- ----------- ----------- -----------
   1       0.00000     0.00000    -0.00000     0.00000
   2       0.00000     0.00000    -0.00000     0.00000
   3      -0.00000     0.00000     0.00000     0.00000
   4       0.00000     0.00000    -0.00000     0.00000

                  WFN1 Final alpha Correlation Function Analysis
                  ----------------------------------------------


 global array: Ca[1:4,1:4],  handle: -977 

                     1                       2                       3                       4  
       ----------------------- ----------------------- ----------------------- -----------------------
   1      -0.68876,   -0.58407     0.32524,    0.22339     0.02244,    0.13628    -0.09851,   -0.00306
   2       0.36868,   -0.15862     0.79997,   -0.44488    -0.00342,   -0.01416    -0.02574,    0.01270
   3       0.05554,    0.09498    -0.02918,   -0.01819    -0.49708,    0.58842    -0.40316,    0.48046
   4      -0.03985,    0.09846     0.03344,   -0.06431    -0.29018,    0.55061     0.37599,   -0.67433

                   WFN1 Final beta Correlation Function Analysis
                   ---------------------------------------------


 global array: Cb[1:4,1:4],  handle: -976 

                     1                       2                       3                       4  
       ----------------------- ----------------------- ----------------------- -----------------------
   1      -0.68876,   -0.58407     0.32524,    0.22339     0.02244,    0.13628    -0.09851,   -0.00306
   2       0.36868,   -0.15862     0.79997,   -0.44488    -0.00342,   -0.01416    -0.02574,    0.01270
   3       0.05554,    0.09498    -0.02918,   -0.01819    -0.49708,    0.58842    -0.40316,    0.48046
   4      -0.03985,    0.09846     0.03344,   -0.06431    -0.29018,    0.55061     0.37599,   -0.67433

                     WFN1 Final Alpha Natural Orbital Analysis
                     -----------------------------------------

 Vector    1  Occ=8.155224D-01  E= 0.000000D+00
              MO Center=  0.0D+00,  0.0D+00, -4.7D-07, r^2= 1.5D+00
   Bfn.  Coefficient  Atom+Function         Bfn.  Coefficient  Atom+Function  
  ----- ------------  ---------------      ----- ------------  ---------------
     2     -0.435044  1 H  s                  4     -0.435044  2 H  s          
     1     -0.241702  1 H  s                  3     -0.241702  2 H  s          

 Vector    2  Occ=1.610883D-01  E= 0.000000D+00
              MO Center=  0.0D+00,  0.0D+00,  5.0D-07, r^2= 1.9D+00
   Bfn.  Coefficient  Atom+Function         Bfn.  Coefficient  Atom+Function  
  ----- ------------  ---------------      ----- ------------  ---------------
     2      0.639520  1 H  s                  4     -0.639520  2 H  s          
     1      0.285509  1 H  s                  3     -0.285510  2 H  s          

 Vector    3  Occ=1.210580D-02  E= 0.000000D+00
              MO Center=  0.0D+00,  0.0D+00,  2.0D-06, r^2= 2.4D+00
   Bfn.  Coefficient  Atom+Function         Bfn.  Coefficient  Atom+Function  
  ----- ------------  ---------------      ----- ------------  ---------------
     2      1.057544  1 H  s                  4     -1.057545  2 H  s          
     1     -0.909436  1 H  s                  3      0.909438  2 H  s          

 Vector    4  Occ=1.128351D-02  E= 0.000000D+00
              MO Center=  0.0D+00,  0.0D+00, -2.1D-06, r^2= 1.8D+00
   Bfn.  Coefficient  Atom+Function         Bfn.  Coefficient  Atom+Function  
  ----- ------------  ---------------      ----- ------------  ---------------
     1      0.921955  1 H  s                  3      0.921953  2 H  s          
     2     -0.682100  1 H  s                  4     -0.682099  2 H  s          


                     WFN1 Final Beta Natural Orbital Analysis
                     ----------------------------------------

 Vector    1  Occ=8.155224D-01  E= 0.000000D+00
              MO Center=  0.0D+00,  0.0D+00, -4.7D-07, r^2= 1.5D+00
   Bfn.  Coefficient  Atom+Function         Bfn.  Coefficient  Atom+Function  
  ----- ------------  ---------------      ----- ------------  ---------------
     2     -0.435044  1 H  s                  4     -0.435044  2 H  s          
     1     -0.241702  1 H  s                  3     -0.241702  2 H  s          

 Vector    2  Occ=1.610883D-01  E= 0.000000D+00
              MO Center=  0.0D+00,  0.0D+00,  5.0D-07, r^2= 1.9D+00
   Bfn.  Coefficient  Atom+Function         Bfn.  Coefficient  Atom+Function  
  ----- ------------  ---------------      ----- ------------  ---------------
     2      0.639520  1 H  s                  4     -0.639520  2 H  s          
     1      0.285509  1 H  s                  3     -0.285510  2 H  s          

 Vector    3  Occ=1.210580D-02  E= 0.000000D+00
              MO Center=  0.0D+00,  0.0D+00,  2.0D-06, r^2= 2.4D+00
   Bfn.  Coefficient  Atom+Function         Bfn.  Coefficient  Atom+Function  
  ----- ------------  ---------------      ----- ------------  ---------------
     2      1.057544  1 H  s                  4     -1.057545  2 H  s          
     1     -0.909436  1 H  s                  3      0.909438  2 H  s          

 Vector    4  Occ=1.128351D-02  E= 0.000000D+00
              MO Center=  0.0D+00,  0.0D+00, -2.1D-06, r^2= 1.8D+00
   Bfn.  Coefficient  Atom+Function         Bfn.  Coefficient  Atom+Function  
  ----- ------------  ---------------      ----- ------------  ---------------
     1      0.921955  1 H  s                  3      0.921953  2 H  s          
     2     -0.682100  1 H  s                  4     -0.682099  2 H  s          


 Task  times  cpu:       17.7s     wall:       27.4s
 Summary of allocated global arrays
-----------------------------------
  No active global arrays



                         GA Statistics for process    0
                         ------------------------------

       create   destroy   get      put      acc     scatter   gather  read&inc
calls:   44       44     9.54e+06 1.99e+04 2.61e+04    0        0       11     
number of processes/call 1.00e+00 1.00e+00 1.00e+00 0.00e+00 0.00e+00
bytes total:             1.23e+09 3.34e+06 4.17e+06 0.00e+00 0.00e+00 8.80e+01
bytes remote:            0.00e+00 0.00e+00 0.00e+00 0.00e+00 0.00e+00 0.00e+00
Max memory consumed for GA by this process: 10624 bytes
MA_summarize_allocated_blocks: starting scan ...
MA_summarize_allocated_blocks: scan completed: 0 heap blocks, 0 stack blocks
MA usage statistics:

	allocation statistics:
					      heap	     stack
					      ----	     -----
	current number of blocks	         0	         0
	maximum number of blocks	        19	        17
	current total bytes		         0	         0
	maximum total bytes		   3204328	  22508616
	maximum total K-bytes		      3205	     22509
	maximum total M-bytes		         4	        23


                                NWChem Input Module
                                -------------------





                                     CITATION
                                     --------
                Please cite the following reference when publishing
                           results obtained with NWChem:

                 M. Valiev, E.J. Bylaska, N. Govind, K. Kowalski,
              T.P. Straatsma, H.J.J. van Dam, D. Wang, J. Nieplocha,
                        E. Apra, T.L. Windus, W.A. de Jong
                 "NWChem: a comprehensive and scalable open-source
                  solution for large scale molecular simulations"
                      Comput. Phys. Commun. 181, 1477 (2010)
                           doi:10.1016/j.cpc.2010.04.018

                                      AUTHORS
                                      -------
          E. Apra, E. J. Bylaska, W. A. de Jong, N. Govind, K. Kowalski,
       T. P. Straatsma, M. Valiev, H. J. J. van Dam, D. Wang, T. L. Windus,
        J. Hammond, J. Autschbach, K. Bhaskaran-Nair, J. Brabec, K. Lopata,
    S. A. Fischer, S. Krishnamoorthy, M. Jacquelin, W. Ma, M. Klemm, O. Villa,
      Y. Chen, V. Anisimov, F. Aquino, S. Hirata, M. T. Hackler, V. Konjkov,
      T. Risthaus, M. Malagoli, A. Marenich, A. Otero-de-la-Roza, J. Mullin,
        P. Nichols, R. Peverati, J. Pittner, Y. Zhao, P.-D. Fan, A. Fonari,
       M. Williamson, R. J. Harrison, J. R. Rehr, M. Dupuis, D. Silverstein,
    D. M. A. Smith, J. Nieplocha, V. Tipparaju, M. Krishnan, B. E. Van Kuiken,
        A. Vazquez-Mayagoitia, L. Jensen, M. Swart, Q. Wu, T. Van Voorhis,
     A. A. Auer, M. Nooijen, L. D. Crosby, E. Brown, G. Cisneros, G. I. Fann,
   H. Fruchtl, J. Garza, K. Hirao, R. A. Kendall, J. A. Nichols, K. Tsemekhman,
    K. Wolinski, J. Anchell, D. E. Bernholdt, P. Borowski, T. Clark, D. Clerc,
   H. Dachsel, M. J. O. Deegan, K. Dyall, D. Elwood, E. Glendening, M. Gutowski,
   A. C. Hess, J. Jaffe, B. G. Johnson, J. Ju, R. Kobayashi, R. Kutteh, Z. Lin,
   R. Littlefield, X. Long, B. Meng, T. Nakajima, S. Niu, L. Pollack, M. Rosing,
   K. Glaesemann, G. Sandrone, M. Stave, H. Taylor, G. Thomas, J. H. van Lenthe,
                               A. T. Wong, Z. Zhang.

 Total times  cpu:       17.7s     wall:       27.5s
