 argument  1 = h2_2_ccpvdz.nw



============================== echo of input deck ==============================
echo

start h2_ccpvdz_dat

geometry units au noautoz nocenter noautosym
  symmetry c1
  H1  0.0  0.0  0.0
  H2  0.0  0.0  1.6818473865225443
  H3  0.0  0.0 41.6818473865225443
  H4  0.0  0.0 43.3636947730450886
end

basis
  * library cc-pvdz
end

scf
  thresh 1.0e-10
  tol2e 1.0e-25
end

task scf gradient
================================================================================


                                         
                                         


             Northwest Computational Chemistry Package (NWChem) 7.0.1
             --------------------------------------------------------


                    Environmental Molecular Sciences Laboratory
                       Pacific Northwest National Laboratory
                                Richland, WA 99352

                              Copyright (c) 1994-2020
                       Pacific Northwest National Laboratory
                            Battelle Memorial Institute

             NWChem is an open-source computational chemistry package
                        distributed under the terms of the
                      Educational Community License (ECL) 2.0
             A copy of the license is included with this distribution
                              in the LICENSE.TXT file

                                  ACKNOWLEDGMENT
                                  --------------

            This software and its documentation were developed at the
            EMSL at Pacific Northwest National Laboratory, a multiprogram
            national laboratory, operated for the U.S. Department of Energy
            by Battelle under Contract Number DE-AC05-76RL01830. Support
            for this work was provided by the Department of Energy Office
            of Biological and Environmental Research, Office of Basic
            Energy Sciences, and the Office of Advanced Scientific Computing.


           Job information
           ---------------

    hostname        = erato
    program         = ../../../bin/LINUX64/nwchem
    date            = Wed Apr 20 22:28:19 2022

    compiled        = Mon_Apr_18_16:24:48_2022
    source          = /home/hvandam/nwchem-1-mokup
    nwchem branch   = 7.0.0
    nwchem revision = nwchem_on_git-2028-gf3ab5e5fb5
    ga revision     = 5.7.2
    use scalapack   = F
    input           = h2_2_ccpvdz.nw
    prefix          = h2_ccpvdz_dat.
    data base       = ./h2_ccpvdz_dat.db
    status          = startup
    nproc           =        1
    time left       =     -1s



           Memory information
           ------------------

    heap     =   13107200 doubles =    100.0 Mbytes
    stack    =   13107197 doubles =    100.0 Mbytes
    global   =   26214400 doubles =    200.0 Mbytes (distinct from heap & stack)
    total    =   52428797 doubles =    400.0 Mbytes
    verify   = yes
    hardfail = no 


           Directory information
           ---------------------

  0 permanent = .
  0 scratch   = .




                                NWChem Input Module
                                -------------------




                             Geometry "geometry" -> ""
                             -------------------------

 Output coordinates in a.u. (scale by  1.000000000 to convert to a.u.)

  No.       Tag          Charge          X              Y              Z
 ---- ---------------- ---------- -------------- -------------- --------------
    1 H1                   1.0000     0.00000000     0.00000000     0.00000000
    2 H2                   1.0000     0.00000000     0.00000000     1.68184739
    3 H3                   1.0000     0.00000000     0.00000000    41.68184739
    4 H4                   1.0000     0.00000000     0.00000000    43.36369477

      Atomic Mass 
      ----------- 

      H1                 1.007825
      H2                 1.007825
      H3                 1.007825
      H4                 1.007825


 Effective nuclear repulsion energy (a.u.)       1.2852118231

            Nuclear Dipole moment (a.u.) 
            ----------------------------
        X                 Y               Z
 ---------------- ---------------- ----------------
     0.0000000000     0.0000000000    86.7273895461


            XYZ format geometry
            -------------------
     4
 geometry
 H1                    0.00000000     0.00000000     0.00000000
 H2                    0.00000000     0.00000000     0.88999537
 H3                    0.00000000     0.00000000    22.05708533
 H4                    0.00000000     0.00000000    22.94708071



 Summary of "ao basis" -> "" (cartesian)
 ------------------------------------------------------------------------------
       Tag                 Description            Shells   Functions and Types
 ---------------- ------------------------------  ------  ---------------------
 *                          cc-pvdz                   on all atoms 


                      Basis "ao basis" -> "ao basis" (cartesian)
                      -----
  H1 (Hydrogen)
  -------------
            Exponent  Coefficients 
       -------------- ---------------------------------------------------------
  1 S  1.30100000E+01  0.019685
  1 S  1.96200000E+00  0.137977
  1 S  4.44600000E-01  0.478148

  2 S  1.22000000E-01  1.000000

  3 P  7.27000000E-01  1.000000

  H2 (Hydrogen)
  -------------
            Exponent  Coefficients 
       -------------- ---------------------------------------------------------
  1 S  1.30100000E+01  0.019685
  1 S  1.96200000E+00  0.137977
  1 S  4.44600000E-01  0.478148

  2 S  1.22000000E-01  1.000000

  3 P  7.27000000E-01  1.000000

  H3 (Hydrogen)
  -------------
            Exponent  Coefficients 
       -------------- ---------------------------------------------------------
  1 S  1.30100000E+01  0.019685
  1 S  1.96200000E+00  0.137977
  1 S  4.44600000E-01  0.478148

  2 S  1.22000000E-01  1.000000

  3 P  7.27000000E-01  1.000000

  H4 (Hydrogen)
  -------------
            Exponent  Coefficients 
       -------------- ---------------------------------------------------------
  1 S  1.30100000E+01  0.019685
  1 S  1.96200000E+00  0.137977
  1 S  4.44600000E-01  0.478148

  2 S  1.22000000E-01  1.000000

  3 P  7.27000000E-01  1.000000



 Summary of "ao basis" -> "ao basis" (cartesian)
 ------------------------------------------------------------------------------
       Tag                 Description            Shells   Functions and Types
 ---------------- ------------------------------  ------  ---------------------
 H1                         cc-pvdz                  3        5   2s1p
 H2                         cc-pvdz                  3        5   2s1p
 H3                         cc-pvdz                  3        5   2s1p
 H4                         cc-pvdz                  3        5   2s1p


                                 NWChem SCF Module
                                 -----------------



  ao basis        = "ao basis"
  functions       =    20
  atoms           =     4
  closed shells   =     2
  open shells     =     0
  charge          =   0.00
  wavefunction    = RHF 
  input vectors   = atomic
  output vectors  = ./h2_ccpvdz_dat.movecs
  use symmetry    = F
  symmetry adapt  = F


 Summary of "ao basis" -> "ao basis" (cartesian)
 ------------------------------------------------------------------------------
       Tag                 Description            Shells   Functions and Types
 ---------------- ------------------------------  ------  ---------------------
 H1                         cc-pvdz                  3        5   2s1p
 H2                         cc-pvdz                  3        5   2s1p
 H3                         cc-pvdz                  3        5   2s1p
 H4                         cc-pvdz                  3        5   2s1p



 Forming initial guess at       0.0s


      Superposition of Atomic Density Guess
      -------------------------------------

 Sum of atomic energies:          -1.99711601

      Non-variational initial energy
      ------------------------------

 Total energy =      -1.660075
 1-e energy   =      -4.348082
 2-e energy   =       1.402796
 HOMO         =      -0.516111
 LUMO         =       0.107105


 Starting SCF solution at       0.1s



 ----------------------------------------------
         Quadratically convergent ROHF

 Convergence threshold     :          1.000E-10
 Maximum no. of iterations :           30
 Final Fock-matrix accuracy:          1.000E-25
 ----------------------------------------------


 #quartets = 9.030D+02 #integrals = 2.363D+03 #direct =  0.0% #cached =100.0%


 Integral file          = ./h2_ccpvdz_dat.aoints.0
 Record size in doubles =    65536    No. of integs per rec  =    43688
 Max. records in memory =        2    Max. records in file   =  2629470
 No. of bits per label  =        8    No. of bits per value  =       64


              iter       energy          gnorm     gmax       time
             ----- ------------------- --------- --------- --------
                 1       -2.2333792092  1.30D-01  8.42D-02      0.0
                 2       -2.2355337835  5.52D-03  3.41D-03      0.0
                 3       -2.2355363545  4.60D-07  2.77D-07      0.0
                 4       -2.2355363545  5.67D-13  2.53D-13      0.0


       Final RHF  results 
       ------------------ 

         Total SCF energy =     -2.235536354470
      One-electron energy =     -4.837361336633
      Two-electron energy =      1.316613159073
 Nuclear repulsion energy =      1.285211823089

        Time for solution =      0.0s


             Final eigenvalues
             -----------------

              1      
    1   -0.5510
    2   -0.5510
    3    0.1672
    4    0.1672
    5    0.5147
    6    0.5147
    7    0.8456
    8    0.8456
    9    1.2835
   10    1.2835
   11    1.2835
   12    1.2835

                       ROHF Final Molecular Orbital Analysis
                       -------------------------------------

 Vector    1  Occ=2.000000D+00  E=-5.510338D-01
              MO Center=  3.0D-17,  7.3D-17,  2.3D+01, r^2= 8.2D-01
   Bfn.  Coefficient  Atom+Function         Bfn.  Coefficient  Atom+Function  
  ----- ------------  ---------------      ----- ------------  ---------------
    11      0.386739  3 H  s                 16      0.386738  4 H  s          
    12      0.207424  3 H  s                 17      0.207420  4 H  s          

 Vector    2  Occ=2.000000D+00  E=-5.510338D-01
              MO Center=  3.2D-17, -5.0D-18,  4.4D-01, r^2= 8.2D-01
   Bfn.  Coefficient  Atom+Function         Bfn.  Coefficient  Atom+Function  
  ----- ------------  ---------------      ----- ------------  ---------------
     1      0.386738  1 H  s                  6      0.386739  2 H  s          
     2      0.207420  1 H  s                  7      0.207424  2 H  s          

 Vector    3  Occ=0.000000D+00  E= 1.671500D-01
              MO Center= -2.7D-18, -7.3D-18,  2.3D+01, r^2= 2.6D+00
   Bfn.  Coefficient  Atom+Function         Bfn.  Coefficient  Atom+Function  
  ----- ------------  ---------------      ----- ------------  ---------------
    12      1.575406  3 H  s                 17     -1.575404  4 H  s          
    11      0.179034  3 H  s                 16     -0.179037  4 H  s          

 Vector    4  Occ=0.000000D+00  E= 1.671500D-01
              MO Center= -2.7D-18,  5.0D-18,  4.4D-01, r^2= 2.6D+00
   Bfn.  Coefficient  Atom+Function         Bfn.  Coefficient  Atom+Function  
  ----- ------------  ---------------      ----- ------------  ---------------
     2      1.575404  1 H  s                  7     -1.575406  2 H  s          
     1      0.179037  1 H  s                  6     -0.179034  2 H  s          

 Vector    5  Occ=0.000000D+00  E= 5.146998D-01
              MO Center= -4.4D-19, -9.2D-19,  2.3D+01, r^2= 2.3D+00
   Bfn.  Coefficient  Atom+Function         Bfn.  Coefficient  Atom+Function  
  ----- ------------  ---------------      ----- ------------  ---------------
    11      0.745905  3 H  s                 16      0.745902  4 H  s          
    12     -0.731722  3 H  s                 17     -0.731723  4 H  s          

 Vector    6  Occ=0.000000D+00  E= 5.146998D-01
              MO Center=  2.8D-18,  2.8D-18,  4.4D-01, r^2= 2.3D+00
   Bfn.  Coefficient  Atom+Function         Bfn.  Coefficient  Atom+Function  
  ----- ------------  ---------------      ----- ------------  ---------------
     1      0.745902  1 H  s                  6      0.745905  2 H  s          
     2     -0.731723  1 H  s                  7     -0.731722  2 H  s          

 Vector    7  Occ=0.000000D+00  E= 8.455590D-01
              MO Center=  2.0D-18,  1.7D-17,  2.3D+01, r^2= 1.8D+00
   Bfn.  Coefficient  Atom+Function         Bfn.  Coefficient  Atom+Function  
  ----- ------------  ---------------      ----- ------------  ---------------
    12      1.528478  3 H  s                 17     -1.528480  4 H  s          
    11     -0.906046  3 H  s                 16      0.906048  4 H  s          
    15      0.280289  3 H  pz                20      0.280289  4 H  pz         

 Vector    8  Occ=0.000000D+00  E= 8.455590D-01
              MO Center= -4.9D-17, -1.3D-16,  4.4D-01, r^2= 1.8D+00
   Bfn.  Coefficient  Atom+Function         Bfn.  Coefficient  Atom+Function  
  ----- ------------  ---------------      ----- ------------  ---------------
     2      1.528480  1 H  s                  7     -1.528478  2 H  s          
     1     -0.906048  1 H  s                  6      0.906046  2 H  s          
     5      0.280289  1 H  pz                10      0.280289  2 H  pz         

 Vector    9  Occ=0.000000D+00  E= 1.283534D+00
              MO Center= -5.6D-17, -7.5D-19,  4.5D-01, r^2= 6.3D-01
   Bfn.  Coefficient  Atom+Function         Bfn.  Coefficient  Atom+Function  
  ----- ------------  ---------------      ----- ------------  ---------------
     3      0.606811  1 H  px                 8      0.606811  2 H  px         

 Vector   10  Occ=0.000000D+00  E= 1.283534D+00
              MO Center= -1.2D-19, -2.7D-18,  4.5D-01, r^2= 6.4D-01
   Bfn.  Coefficient  Atom+Function         Bfn.  Coefficient  Atom+Function  
  ----- ------------  ---------------      ----- ------------  ---------------
     4      0.606806  1 H  py                 9      0.606807  2 H  py         

 Vector   11  Occ=0.000000D+00  E= 1.283534D+00
              MO Center=  1.9D-17, -2.2D-17,  2.3D+01, r^2= 6.3D-01
   Bfn.  Coefficient  Atom+Function         Bfn.  Coefficient  Atom+Function  
  ----- ------------  ---------------      ----- ------------  ---------------
    14      0.460784  3 H  py                19      0.460784  4 H  py         
    13     -0.394917  3 H  px                18     -0.394917  4 H  px         

 Vector   12  Occ=0.000000D+00  E= 1.283534D+00
              MO Center= -3.8D-17, -3.3D-17,  2.3D+01, r^2= 6.4D-01
   Bfn.  Coefficient  Atom+Function         Bfn.  Coefficient  Atom+Function  
  ----- ------------  ---------------      ----- ------------  ---------------
    13      0.460781  3 H  px                18      0.460781  4 H  px         
    14      0.394914  3 H  py                19      0.394913  4 H  py         


 center of mass
 --------------
 x =   0.00000000 y =   0.00000000 z =  21.68184739

 moments of inertia (a.u.)
 ------------------
        1753.822116405262           0.000000000000           0.000000000000
           0.000000000000        1753.822116405262           0.000000000000
           0.000000000000           0.000000000000           0.000000000000

  Mulliken analysis of the total density
  --------------------------------------

    Atom       Charge   Shell Charges
 -----------   ------   -------------------------------------------------------
    1 H    1     1.00   0.64  0.35  0.01
    2 H    1     1.00   0.64  0.35  0.01
    3 H    1     1.00   0.64  0.35  0.01
    4 H    1     1.00   0.64  0.35  0.01

       Multipole analysis of the density wrt the origin
       ------------------------------------------------

     L   x y z        total         open         nuclear
     -   - - -        -----         ----         -------
     0   0 0 0      0.000000      0.000000      4.000000

     1   1 0 0     -0.000000      0.000000      0.000000
     1   0 1 0     -0.000000      0.000000      0.000000
     1   0 0 1     -0.000000      0.000000     86.727390

     2   2 0 0     -3.364535      0.000000      0.000000
     2   1 1 0      0.000000      0.000000      0.000000
     2   1 0 1     -0.000000      0.000000      0.000000
     2   0 2 0     -3.364535      0.000000      0.000000
     2   0 1 1     -0.000000      0.000000      0.000000
     2   0 0 2     -2.211388      0.000000   3620.615037


 Parallel integral file used       1 records with       0 large values

                              NWChem Gradients Module
                              -----------------------



  wavefunction    =   RHF     

tensor_t overlap_nuc(TA::World& world) {
    TA::detail::tensor2_il<double> il{
      {
           -0.0000000000000000, // iat,icrd=  1 1
            0.0000000000000000, // iat,icrd=  1 2
            0.2146402158141014  // iat,icrd=  1 3
        },
      {
            0.0000000000000000, // iat,icrd=  2 1
           -0.0000000000000000, // iat,icrd=  2 2
           -0.2146402158141014  // iat,icrd=  2 3
        },
      {
            0.0000000000000000, // iat,icrd=  3 1
            0.0000000000000000, // iat,icrd=  3 2
            0.2146402158143001  // iat,icrd=  3 3
        },
      {
           -0.0000000000000000, // iat,icrd=  4 1
           -0.0000000000000000, // iat,icrd=  4 2
           -0.2146402158143001  // iat,icrd=  4 3
        }
    };
    return tensor_t(TA::TSpArrayD(world, il));
}




tensor_t nuclear_nuc(TA::World& world) {
    TA::detail::tensor2_il<double> il{
      {
            0.0000000000000000, // iat,icrd=  1 1
            0.0000000000000000, // iat,icrd=  1 2
            0.3546378331526138  // iat,icrd=  1 3
        },
      {
            0.0000000000000000, // iat,icrd=  2 1
            0.0000000000000000, // iat,icrd=  2 2
           -0.3523298732178649  // iat,icrd=  2 3
        },
      {
            0.0000000000000000, // iat,icrd=  3 1
            0.0000000000000000, // iat,icrd=  3 2
            0.3523298732178672  // iat,icrd=  3 3
        },
      {
            0.0000000000000000, // iat,icrd=  4 1
            0.0000000000000000, // iat,icrd=  4 2
           -0.3546378331526162  // iat,icrd=  4 3
        }
    };
    return tensor_t(TA::TSpArrayD(world, il));
}




tensor_t kinetic_nuc(TA::World& world) {
    TA::detail::tensor2_il<double> il{
      {
           -0.0000000000000000, // iat,icrd=  1 1
            0.0000000000000000, // iat,icrd=  1 2
            0.2994062590902767  // iat,icrd=  1 3
        },
      {
            0.0000000000000000, // iat,icrd=  2 1
           -0.0000000000000000, // iat,icrd=  2 2
           -0.2994062590902767  // iat,icrd=  2 3
        },
      {
            0.0000000000000000, // iat,icrd=  3 1
            0.0000000000000000, // iat,icrd=  3 2
            0.2994062590904368  // iat,icrd=  3 3
        },
      {
           -0.0000000000000000, // iat,icrd=  4 1
           -0.0000000000000000, // iat,icrd=  4 2
           -0.2994062590904368  // iat,icrd=  4 3
        }
    };
    return tensor_t(TA::TSpArrayD(world, il));
}




tensor_t nuclear_attraction_nuc(TA::World& world) {
    TA::detail::tensor2_il<double> il{
      {
            0.0000000000000000, // iat,icrd=  1 1
           -0.0000000000000000, // iat,icrd=  1 2
           -1.2808959838587741  // iat,icrd=  1 3
        },
      {
           -0.0000000000000000, // iat,icrd=  2 1
            0.0000000000000000, // iat,icrd=  2 2
            1.2762823661039879  // iat,icrd=  2 3
        },
      {
           -0.0000000000000001, // iat,icrd=  3 1
           -0.0000000000000001, // iat,icrd=  3 2
           -1.2762823661046130  // iat,icrd=  3 3
        },
      {
            0.0000000000000001, // iat,icrd=  4 1
            0.0000000000000001, // iat,icrd=  4 2
            1.2808959838593992  // iat,icrd=  4 3
        }
    };
    return tensor_t(TA::TSpArrayD(world, il));
}




tensor_t eri_nuc(TA::World& world) {
    TA::detail::tensor2_il<double> il{
      {
           -0.0000000000000000, // iat,icrd=  1 1
            0.0000000000000000, // iat,icrd=  1 2
            0.3408946455170084  // iat,icrd=  1 3
        },
      {
            0.0000000000000000, // iat,icrd=  2 1
           -0.0000000000000000, // iat,icrd=  2 2
           -0.3385889857902875  // iat,icrd=  2 3
        },
      {
            0.0000000000000001, // iat,icrd=  3 1
            0.0000000000000000, // iat,icrd=  3 2
            0.3385889857905444  // iat,icrd=  3 3
        },
      {
           -0.0000000000000001, // iat,icrd=  4 1
           -0.0000000000000000, // iat,icrd=  4 2
           -0.3408946455172652  // iat,icrd=  4 3
        }
    };
    return tensor_t(TA::TSpArrayD(world, il));
}


                         RHF ENERGY GRADIENTS

    atom               coordinates                        gradient
                 x          y          z           x          y          z
   1 H1      0.000000   0.000000   0.000000    0.000000  -0.000000  -0.071317
   2 H2      0.000000   0.000000   1.681847   -0.000000   0.000000   0.071317
   3 H3      0.000000   0.000000  41.681847   -0.000000  -0.000000  -0.071317
   4 H4      0.000000   0.000000  43.363695    0.000000   0.000000   0.071317

                 ----------------------------------------
                 |  Time  |  1-e(secs)   |  2-e(secs)   |
                 ----------------------------------------
                 |  CPU   |       0.00   |       0.03   |
                 ----------------------------------------
                 |  WALL  |       0.00   |       0.03   |
                 ----------------------------------------

 Task  times  cpu:        0.1s     wall:        0.1s


                                NWChem Input Module
                                -------------------


 Summary of allocated global arrays
-----------------------------------
  No active global arrays



                         GA Statistics for process    0
                         ------------------------------

       create   destroy   get      put      acc     scatter   gather  read&inc
calls:  177      177     9607      749      558        0        0      106     
number of processes/call 0.00e+00 0.00e+00 0.00e+00 0.00e+00 0.00e+00
bytes total:             8.35e+05 4.30e+05 1.11e+05 0.00e+00 0.00e+00 8.48e+02
bytes remote:            0.00e+00 0.00e+00 0.00e+00 0.00e+00 0.00e+00 0.00e+00
Max memory consumed for GA by this process: 41600 bytes

MA_summarize_allocated_blocks: starting scan ...
MA_summarize_allocated_blocks: scan completed: 0 heap blocks, 0 stack blocks
MA usage statistics:

	allocation statistics:
					      heap	     stack
					      ----	     -----
	current number of blocks	         0	         0
	maximum number of blocks	        18	        28
	current total bytes		         0	         0
	maximum total bytes		   1056160	  22509448
	maximum total K-bytes		      1057	     22510
	maximum total M-bytes		         2	        23


                                     CITATION
                                     --------
                Please cite the following reference when publishing
                           results obtained with NWChem:

          E. Aprà, E. J. Bylaska, W. A. de Jong, N. Govind, K. Kowalski,
       T. P. Straatsma, M. Valiev, H. J. J. van Dam, Y. Alexeev, J. Anchell,
       V. Anisimov, F. W. Aquino, R. Atta-Fynn, J. Autschbach, N. P. Bauman,
     J. C. Becca, D. E. Bernholdt, K. Bhaskaran-Nair, S. Bogatko, P. Borowski,
        J. Boschen, J. Brabec, A. Bruner, E. Cauët, Y. Chen, G. N. Chuev,
      C. J. Cramer, J. Daily, M. J. O. Deegan, T. H. Dunning Jr., M. Dupuis,
   K. G. Dyall, G. I. Fann, S. A. Fischer, A. Fonari, H. Früchtl, L. Gagliardi,
      J. Garza, N. Gawande, S. Ghosh, K. Glaesemann, A. W. Götz, J. Hammond,
       V. Helms, E. D. Hermes, K. Hirao, S. Hirata, M. Jacquelin, L. Jensen,
   B. G. Johnson, H. Jónsson, R. A. Kendall, M. Klemm, R. Kobayashi, V. Konkov,
      S. Krishnamoorthy, M. Krishnan, Z. Lin, R. D. Lins, R. J. Littlefield,
      A. J. Logsdail, K. Lopata, W. Ma, A. V. Marenich, J. Martin del Campo,
   D. Mejia-Rodriguez, J. E. Moore, J. M. Mullin, T. Nakajima, D. R. Nascimento,
    J. A. Nichols, P. J. Nichols, J. Nieplocha, A. Otero-de-la-Roza, B. Palmer,
    A. Panyala, T. Pirojsirikul, B. Peng, R. Peverati, J. Pittner, L. Pollack,
   R. M. Richard, P. Sadayappan, G. C. Schatz, W. A. Shelton, D. W. Silverstein,
   D. M. A. Smith, T. A. Soares, D. Song, M. Swart, H. L. Taylor, G. S. Thomas,
            V. Tipparaju, D. G. Truhlar, K. Tsemekhman, T. Van Voorhis,
     Á. Vázquez-Mayagoitia, P. Verma, O. Villa, A. Vishnu, K. D. Vogiatzis,
        D. Wang, J. H. Weare, M. J. Williamson, T. L. Windus, K. Woliński,
        A. T. Wong, Q. Wu, C. Yang, Q. Yu, M. Zacharias, Z. Zhang, Y. Zhao,
                                and R. J. Harrison
                        "NWChem: Past, present, and future
                         J. Chem. Phys. 152, 184102 (2020)
                               doi:10.1063/5.0004997

                                      AUTHORS
                                      -------
     E. Apra, E. J. Bylaska, N. Govind, K. Kowalski, M. Valiev, W. A. de Jong,
      T. P. Straatsma, H. J. J. van Dam, D. Wang, T. L. Windus, N. P. Bauman,
       A. Panyala, J. Hammond, J. Autschbach, K. Bhaskaran-Nair, J. Brabec,
    K. Lopata, S. A. Fischer, S. Krishnamoorthy, M. Jacquelin, W. Ma, M. Klemm,
       O. Villa, Y. Chen, V. Anisimov, F. Aquino, S. Hirata, M. T. Hackler,
           Eric Hermes, L. Jensen, J. E. Moore, J. C. Becca, V. Konjkov,
            D. Mejia-Rodriguez, T. Risthaus, M. Malagoli, A. Marenich,
   A. Otero-de-la-Roza, J. Mullin, P. Nichols, R. Peverati, J. Pittner, Y. Zhao,
        P.-D. Fan, A. Fonari, M. J. Williamson, R. J. Harrison, J. R. Rehr,
      M. Dupuis, D. Silverstein, D. M. A. Smith, J. Nieplocha, V. Tipparaju,
      M. Krishnan, B. E. Van Kuiken, A. Vazquez-Mayagoitia, M. Swart, Q. Wu,
   T. Van Voorhis, A. A. Auer, M. Nooijen, L. D. Crosby, E. Brown, G. Cisneros,
     G. I. Fann, H. Fruchtl, J. Garza, K. Hirao, R. A. Kendall, J. A. Nichols,
       K. Tsemekhman, K. Wolinski, J. Anchell, D. E. Bernholdt, P. Borowski,
       T. Clark, D. Clerc, H. Dachsel, M. J. O. Deegan, K. Dyall, D. Elwood,
      E. Glendening, M. Gutowski, A. C. Hess, J. Jaffe, B. G. Johnson, J. Ju,
        R. Kobayashi, R. Kutteh, Z. Lin, R. Littlefield, X. Long, B. Meng,
      T. Nakajima, S. Niu, L. Pollack, M. Rosing, K. Glaesemann, G. Sandrone,
      M. Stave, H. Taylor, G. Thomas, J. H. van Lenthe, A. T. Wong, Z. Zhang.

 Total times  cpu:        0.1s     wall:        0.2s
