 argument  1 = wfn1_o.nw



============================== echo of input deck ==============================
echo
start wfn1_o_dat

geometry
  o      0.00000000     0.00000000     0.00000000
end
basis
  * library 6-31g*
end

set wfn1:nopen  2
set wfn1:t_bath 0.0
set wfn1:maxit  600
set wfn1:print_error T

task wfn1 energy

set wfn1:nopen  2
set wfn1:t_bath 0.5
set wfn1:maxit  5000
set wfn1:print_error T

task wfn1 energy
================================================================================


                                         
                                         


              Northwest Computational Chemistry Package (NWChem) 6.8
              ------------------------------------------------------


                    Environmental Molecular Sciences Laboratory
                       Pacific Northwest National Laboratory
                                Richland, WA 99352

                              Copyright (c) 1994-2015
                       Pacific Northwest National Laboratory
                            Battelle Memorial Institute

             NWChem is an open-source computational chemistry package
                        distributed under the terms of the
                      Educational Community License (ECL) 2.0
             A copy of the license is included with this distribution
                              in the LICENSE.TXT file

                                  ACKNOWLEDGMENT
                                  --------------

            This software and its documentation were developed at the
            EMSL at Pacific Northwest National Laboratory, a multiprogram
            national laboratory, operated for the U.S. Department of Energy
            by Battelle under Contract Number DE-AC05-76RL01830. Support
            for this work was provided by the Department of Energy Office
            of Biological and Environmental Research, Office of Basic
            Energy Sciences, and the Office of Advanced Scientific Computing.


           Job information
           ---------------

    hostname        = erato
    program         = ../../../bin/LINUX64/nwchem
    date            = Mon Apr 23 22:24:46 2018

    compiled        = Sun_Apr_22_21:22:26_2018
    source          = /home/hvandam/nwchem-1-wfn1
    nwchem branch   = Development
    nwchem revision = nwchem_on_git-51-gcccac83fc2a4226c5c513281d68ab773edcb0a0d
    ga revision     = nwchem_on_git-43-g1da910a
    use scalapack   = F
    input           = wfn1_o.nw
    prefix          = wfn1_o_dat.
    data base       = ./wfn1_o_dat.db
    status          = startup
    nproc           =        1
    time left       =     -1s



           Memory information
           ------------------

    heap     =   13107198 doubles =    100.0 Mbytes
    stack    =   13107195 doubles =    100.0 Mbytes
    global   =   26214400 doubles =    200.0 Mbytes (distinct from heap & stack)
    total    =   52428793 doubles =    400.0 Mbytes
    verify   = yes
    hardfail = no 


           Directory information
           ---------------------

  0 permanent = .
  0 scratch   = .




                                NWChem Input Module
                                -------------------



 Scaling coordinates for geometry "geometry" by  1.889725989
 (inverse scale =  0.529177249)



                             Geometry "geometry" -> ""
                             -------------------------

 Output coordinates in angstroms (scale by  1.889725989 to convert to a.u.)

  No.       Tag          Charge          X              Y              Z
 ---- ---------------- ---------- -------------- -------------- --------------
    1 o                    8.0000     0.00000000     0.00000000     0.00000000

      Atomic Mass 
      ----------- 

      o                 15.994910


 Effective nuclear repulsion energy (a.u.)       0.0000000000

            Nuclear Dipole moment (a.u.) 
            ----------------------------
        X                 Y               Z
 ---------------- ---------------- ----------------
     0.0000000000     0.0000000000     0.0000000000


            XYZ format geometry
            -------------------
     1
 geometry
 o                     0.00000000     0.00000000     0.00000000



 Summary of "ao basis" -> "" (cartesian)
 ------------------------------------------------------------------------------
       Tag                 Description            Shells   Functions and Types
 ---------------- ------------------------------  ------  ---------------------
 *                           6-31g*                   on all atoms 



                                NWChem WFN1 Module
                                ------------------


                      Basis "ao basis" -> "ao basis" (cartesian)
                      -----
  o (Oxygen)
  ----------
            Exponent  Coefficients 
       -------------- ---------------------------------------------------------
  1 S  5.48467170E+03  0.001831
  1 S  8.25234950E+02  0.013950
  1 S  1.88046960E+02  0.068445
  1 S  5.29645000E+01  0.232714
  1 S  1.68975700E+01  0.470193
  1 S  5.79963530E+00  0.358521

  2 S  1.55396160E+01 -0.110778
  2 S  3.59993360E+00 -0.148026
  2 S  1.01376180E+00  1.130767

  3 P  1.55396160E+01  0.070874
  3 P  3.59993360E+00  0.339753
  3 P  1.01376180E+00  0.727159

  4 S  2.70005800E-01  1.000000

  5 P  2.70005800E-01  1.000000

  6 D  8.00000000E-01  1.000000



 Summary of "ao basis" -> "ao basis" (cartesian)
 ------------------------------------------------------------------------------
       Tag                 Description            Shells   Functions and Types
 ---------------- ------------------------------  ------  ---------------------
 o                           6-31g*                  6       15   3s2p1d



      Superposition of Atomic Density Guess
      -------------------------------------

 Sum of atomic energies:         -74.75435223

      Non-variational initial energy
      ------------------------------

 Total energy =     -74.250355
 1-e energy   =    -103.191043
 2-e energy   =      28.940688
 HOMO         =      -0.368773
 LUMO         =      -0.368773

 iteration              energy           error          err Na          err Nb          err Ca          err Cb
 ---------              ------           -----          ------          ------          ------          ------
         1        -74.77688078        0.803945        0.150623        0.653323        0.000000        0.000000
         2        -74.78021544        0.624135        0.113973        0.510162        0.000000        0.000000
         3        -74.78152534       31.351560        5.667513       25.684047        0.000000        0.000000
         4        -74.78220945       29.753693        5.461779       24.291914        0.000000        0.000000
         5        -74.78254971      266.276780       76.734478      189.542302        0.000000        0.000000
         6        -74.78319665      156.297324      103.012404       53.284920        0.000000        0.000000
         7        -74.78335262      328.458677      153.681278      174.777399        0.000000        0.000000
         8        -74.78352068      283.530185      138.951727      144.578458        0.000000        0.000000
         9        -74.78357724       39.521955       18.598257       20.923699        0.000000        0.000000
        10        -74.78365643      224.798362      105.770441      119.027921        0.000000        0.000000
        11        -74.78353961      110.594091       21.855789       88.738302        0.000000        0.000000
        12        -74.78360186      121.607705       28.862735       92.744970        0.000000        0.000000
        13        -74.78364695      128.614067       35.929700       92.684367        0.000000        0.000000
        14        -74.78349110       95.893531       30.561674       65.331857        0.000000        0.000000
        15        -74.78308324      260.447673       72.256916      188.190757        0.000000        0.000000
        16        -74.78325539      196.326765       87.214317      109.112448        0.000000        0.000000
        17        -74.78335558      161.929903       47.266131      114.663772        0.000000        0.000000
        18        -74.78298623      188.596147      160.202833       28.393314        0.000000        0.000000
        19        -74.78321644       48.712730        5.156463       43.556267        0.000000        0.000000
        20        -74.78334784       47.604559        5.463963       42.140596        0.000000        0.000000
        21        -74.78345367       90.202514       11.768700       78.433814        0.000000        0.000000
        22        -74.78296155      229.986919      132.172811       97.814108        0.000000        0.000000
        23        -74.78369278      154.872841        0.285450      154.587391        0.000000        0.000000
        24        -74.78372037        7.789231        2.629348        5.159883        0.000000        0.000000
        25        -74.78386164      371.196411      184.599166      186.597245        0.000000        0.000000
        26        -74.78387116        0.358490        0.016728        0.341762        0.000000        0.000000
        27        -74.78391668      127.730029        7.522340      120.207689        0.000000        0.000000
        28        -74.78392610      125.517165       11.188256      114.328909        0.000000        0.000000
        29        -74.78392738       80.377485        9.913191       70.464294        0.000000        0.000000
        30        -74.78392821      131.008009       20.257571      110.750438        0.000000        0.000000
        31        -74.78392820       96.417893       15.171928       81.245965        0.000000        0.000000
        32        -74.78392960      220.297467      136.713160       83.584307        0.000000        0.000000
        33        -74.78392728      182.486910      181.835506        0.651404        0.000000        0.000000
        34        -74.78393018        8.825170        3.358267        5.466903        0.000000        0.000000
        35        -74.78393172      284.466832       99.456879      185.009954        0.000000        0.000000
        36        -74.78393225      248.223669      144.246218      103.977451        0.000000        0.000000
        37        -74.78393164      249.658339      176.538590       73.119749        0.000000        0.000000
        38        -74.78393201      210.760733       82.106934      128.653799        0.000000        0.000000
        39        -74.78393220       47.044981       21.099720       25.945261        0.000000        0.000000
        40        -74.78393246      181.476353       81.764133       99.712220        0.000000        0.000000
        41        -74.78393259      133.251631       39.797502       93.454129        0.000000        0.000000
        42        -74.78393271      155.355133       52.701185      102.653948        0.000000        0.000000
        43        -74.78393276       52.364716        0.000461       52.364255        0.000000        0.000000
        44        -74.78393289      117.836708        0.006439      117.830269        0.000000        0.000000
        45        -74.78393297       91.250487        1.853203       89.397284        0.000000        0.000000
        46        -74.78393306       68.171840       15.045565       53.126275        0.000000        0.000000
        47        -74.78393314      218.889620      129.291729       89.597890        0.000000        0.000000
        48        -74.78393284      150.187320      130.562733       19.624587        0.000000        0.000000
        49        -74.78393321      213.326329       44.830125      168.496204        0.000000        0.000000
        50        -74.78393352      293.231609      145.439599      147.792010        0.000000        0.000000
        51        -74.78393353      103.703856       49.216399       54.487458        0.000000        0.000000
        52        -74.78393354      196.756306       92.725080      104.031226        0.000000        0.000000
        53        -74.78393355       51.819305       43.431223        8.388082        0.000000        0.000000
        54        -74.78393356      237.928460      176.820785       61.107675        0.000000        0.000000
        55        -74.78393356       72.064526       35.322924       36.741602        0.000000        0.000000
        56        -74.78393356       35.333533       35.322924        0.010609        0.000000        0.000000
        57        -74.78393357      168.634748      168.425660        0.209089        0.000000        0.000000
        58        -74.78393357      155.923210      153.862408        2.060802        0.000000        0.000000
        59        -74.78393358        3.164055        0.265115        2.898940        0.000000        0.000000
        60        -74.78393359      137.456379       14.338695      123.117683        0.000000        0.000000
        61        -74.78393359      102.063019       15.136711       86.926308        0.000000        0.000000
        62        -74.78393359      271.996452       86.252010      185.744442        0.000000        0.000000
        63        -74.78393359       88.687538       86.252010        2.435529        0.000000        0.000000
        64        -74.78393359      106.395067      101.984965        4.410102        0.000000        0.000000
        65        -74.78393359        7.801375        3.391273        4.410102        0.000000        0.000000
        66        -74.78393359      102.288269       63.593772       38.694497        0.000000        0.000000
        67        -74.78393359      114.997623       76.303126       38.694497        0.000000        0.000000
        68        -74.78393359      203.810210      165.115713       38.694497        0.000000        0.000000
        69        -74.78393359       51.171669       12.477172       38.694497        0.000000        0.000000
        70        -74.78393359       12.480878       12.477172        0.003706        0.000000        0.000000
        71        -74.78393359       98.695177       98.661023        0.034155        0.000000        0.000000
        72        -74.78393359       26.146331       26.112176        0.034155        0.000000        0.000000
        73        -74.78393359        0.280514        0.246359        0.034155        0.000000        0.000000
        74        -74.78393359        1.540135        1.358171        0.181964        0.000000        0.000000
        75        -74.78393359        0.814975        0.633011        0.181964        0.000000        0.000000
        76        -74.78393359        0.378120        0.196155        0.181964        0.000000        0.000000
        77        -74.78393359        0.218757        0.036793        0.181964        0.000000        0.000000
        78        -74.78393359        0.076386        0.036793        0.039593        0.000000        0.000000
        79        -74.78393360        0.469969        0.219286        0.250683        0.000000        0.000000
        80        -74.78393360        3.531380        1.630281        1.901099        0.000000        0.000000
        81        -74.78393360        1.630290        1.630281        0.000009        0.000000        0.000000
        82        -74.78393360       10.051017       10.050958        0.000059        0.000000        0.000000
        83        -74.78393360        0.000904        0.000845        0.000059        0.000000        0.000000
        84        -74.78393360        0.001480        0.001160        0.000319        0.000000        0.000000
        85        -74.78393360        0.007088        0.004779        0.002309        0.000000        0.000000
        86        -74.78393360        0.034565        0.022684        0.011881        0.000000        0.000000
        87        -74.78393360        0.227088        0.148068        0.079019        0.000000        0.000000
        88        -74.78393360        1.112287        0.723035        0.389252        0.000000        0.000000
        89        -74.78393360        7.897774        5.116389        2.781385        0.000000        0.000000
        90        -74.78393360        5.213298        5.116389        0.096909        0.000000        0.000000
        91        -74.78393360        2.618889        2.521980        0.096909        0.000000        0.000000
        92        -74.78393360        0.217145        0.120236        0.096909        0.000000        0.000000
        93        -74.78393360        0.728170        0.403255        0.324914        0.000000        0.000000
        94        -74.78393360        5.695169        3.158355        2.536814        0.000000        0.000000
        95        -74.78393360        3.158394        3.158355        0.000038        0.000000        0.000000
        96        -74.78393360        1.332398        1.332359        0.000038        0.000000        0.000000
        97        -74.78393360        0.001657        0.001618        0.000038        0.000000        0.000000
        98        -74.78393360        0.005444        0.005322        0.000122        0.000000        0.000000
        99        -74.78393360        0.046686        0.045692        0.000994        0.000000        0.000000
       100        -74.78393360        0.156419        0.153313        0.003106        0.000000        0.000000
       101        -74.78393360        1.332264        1.307328        0.024935        0.000000        0.000000
       102        -74.78393360        0.361830        0.336895        0.024935        0.000000        0.000000
       103        -74.78393360        1.325734        1.240592        0.085143        0.000000        0.000000
       104        -74.78393360       10.023743        9.412337        0.611406        0.000000        0.000000
       105        -74.78393360        1.128581        0.517175        0.611406        0.000000        0.000000
       106        -74.78393360        0.518770        0.517175        0.001595        0.000000        0.000000
       107        -74.78393360        1.596573        1.591134        0.005439        0.000000        0.000000
       108        -74.78393360        0.433768        0.428329        0.005439        0.000000        0.000000
       109        -74.78393360        3.559986        3.514493        0.045493        0.000000        0.000000
       110        -74.78393360        0.323990        0.278497        0.045493        0.000000        0.000000
       111        -74.78393360        1.340173        1.151402        0.188770        0.000000        0.000000
       112        -74.78393360        9.616447        8.245875        1.370572        0.000000        0.000000
       113        -74.78393360        1.462313        0.091741        1.370572        0.000000        0.000000
       114        -74.78393360        3.877938        0.240695        3.637244        0.000000        0.000000
       115        -74.78393360       57.321648        3.831922       53.489727        0.000000        0.000000
       116        -74.78393360        4.204850        3.831922        0.372928        0.000000        0.000000
       117        -74.78393360        0.652373        0.279445        0.372928        0.000000        0.000000
       118        -74.78393360        1.233994        0.520530        0.713464        0.000000        0.000000
       119        -74.78393360       25.247115       10.604171       14.642944        0.000000        0.000000
       120        -74.78393360       10.881670       10.604171        0.277499        0.000000        0.000000
       121        -74.78393360        5.554326        5.276827        0.277499        0.000000        0.000000
       122        -74.78393360        1.666722        1.389223        0.277499        0.000000        0.000000
       123        -74.78393360        0.279538        0.002039        0.277499        0.000000        0.000000
       124        -74.78393360        0.427046        0.003382        0.423664        0.000000        0.000000
       125        -74.78393360       11.888785        0.101363       11.787422        0.000000        0.000000
       126        -74.78393360        0.112272        0.101363        0.010909        0.000000        0.000000
       127        -74.78393360        0.159152        0.143573        0.015579        0.000000        0.000000
       128        -74.78393360        4.962206        4.471398        0.490808        0.000000        0.000000
       129        -74.78393360        3.713048        3.222240        0.490808        0.000000        0.000000
       130        -74.78393360        1.234004        0.743196        0.490808        0.000000        0.000000
       131        -74.78393360        1.528228        0.920909        0.607319        0.000000        0.000000
       132        -74.78393360       74.816280       44.742986       30.073295        0.000000        0.000000
       133        -74.78393360      109.468954       79.395659       30.073295        0.000000        0.000000
       134        -74.78393360      177.974323      147.901029       30.073295        0.000000        0.000000
       135        -74.78393360      235.318534      205.245240       30.073295        0.000000        0.000000
       136        -74.78393360      167.900241      137.826947       30.073295        0.000000        0.000000
       137        -74.78393360       58.976773       28.903478       30.073295        0.000000        0.000000
       138        -74.78393360       31.770002       28.903478        2.866524        0.000000        0.000000
       139        -74.78393360       12.762515        9.895991        2.866524        0.000000        0.000000
       140        -74.78393360        2.993315        0.126791        2.866524        0.000000        0.000000
       141        -74.78393360        0.736932        0.126791        0.610141        0.000000        0.000000
       142        -74.78393360        0.139967        0.126791        0.013176        0.000000        0.000000
       143        -74.78393360        0.359920        0.213834        0.146086        0.000000        0.000000
       144        -74.78393360        0.220744        0.074658        0.146086        0.000000        0.000000
       145        -74.78393360        0.142915        0.074658        0.068256        0.000000        0.000000
       146        -74.78393360        2.389443        0.673222        1.716221        0.000000        0.000000
       147        -74.78393360        0.710182        0.673222        0.036959        0.000000        0.000000
       148        -74.78393360        0.117634        0.080675        0.036959        0.000000        0.000000
       149        -74.78393360        0.052616        0.015656        0.036959        0.000000        0.000000
       150        -74.78393360        0.015712        0.015656        0.000055        0.000000        0.000000
       151        -74.78393360        0.000064        0.000008        0.000055        0.000000        0.000000
       152        -74.78393360        0.000031        0.000008        0.000022        0.000000        0.000000
       153        -74.78393360        0.000009        0.000008        0.000000        0.000000        0.000000
       154        -74.78393360        0.000004        0.000003        0.000000        0.000000        0.000000
       155        -74.78393360        0.000001        0.000001        0.000000        0.000000        0.000000
       156        -74.78393360        0.000000        0.000000        0.000000        0.000000        0.000000

 Reached Convergence

 WFN1                     :
 --------------------------
 Total WFN1 energy =         -74.7839335977
 1-Electron energy =        -103.2157702122
 2-Electron energy =          28.4318366145
 Entropy energy    =           0.0000000000
 Nuclear energy    =           0.0000000000

 conventional Hartree-Fock:
 --------------------------
 Total SCF energy  =         -74.7839335977
 2-Electron energy =          28.4318366145


      Natural orbital occupation numbers

          Alpha     Beta
         ------   ------
     3   1.0000   1.0000
     4   1.0000   0.0000
     5   1.0000   0.0000
     6   0.0000   0.0000

                     WFN1 Final Correlation function energies
                     ----------------------------------------

              alpha       beta  
            --------    --------
       1    -20.7153    -20.6380
       2     -1.4082     -1.0707
       3     -0.7003     -0.5153
       4     -0.7003      1.0669
       5     -0.6040      1.1410
       6      0.8913      1.1992
       7      1.0362      1.2999
       8      1.0507      1.3542
       9      1.0815      1.4055
      10      1.9698      1.5076
      11      1.9758      1.6084
      12      1.9804      1.6456
      13      1.9813      1.7142
      14      1.9915      1.9714
      15      3.5020      3.1210

                  WFN1 Final alpha Correlation Function Analysis
                  ----------------------------------------------


 global array: Ca[1:15,1:15],  handle: -988 

            1           2           3           4           5           6  
       ----------- ----------- ----------- ----------- ----------- -----------
   1       1.00000     0.00000     0.00000     0.00000     0.00000     0.00000
   2       0.00000     1.00000     0.00000     0.00000     0.00000     0.00000
   3       0.00000     0.00000     0.00000     0.00000     1.00000     0.00000
   4       0.00000     0.00000     1.00000     0.00000     0.00000     0.00000
   5       0.00000     0.00000     0.00000     1.00000     0.00000     0.00000
   6       0.00000     0.00000     0.00000     0.00000     0.00000     1.00000
   7       0.00000     0.00000     0.00000     0.00000     0.00000     0.00000
   8       0.00000     0.00000     0.00000     0.00000     0.00000     0.00000
   9       0.00000     0.00000     0.00000     0.00000     0.00000     0.00000
  10       0.00000     0.00000     0.00000     0.00000     0.00000     0.00000
  11       0.00000     0.00000     0.00000     0.00000     0.00000     0.00000
  12       0.00000     0.00000     0.00000     0.00000     0.00000     0.00000
  13       0.00000     0.00000     0.00000     0.00000     0.00000     0.00000
  14       0.00000     0.00000     0.00000     0.00000     0.00000     0.00000
  15       0.00000     0.00000     0.00000     0.00000     0.00000     0.00000

            7           8           9          10          11          12  
       ----------- ----------- ----------- ----------- ----------- -----------
   1       0.00000     0.00000     0.00000     0.00000     0.00000     0.00000
   2       0.00000     0.00000     0.00000     0.00000     0.00000     0.00000
   3       0.00000     0.00000     0.00000     0.00000     0.00000     0.00000
   4       0.00000     0.00000     0.00000     0.00000     0.00000     0.00000
   5       0.00000     0.00000     0.00000     0.00000     0.00000     0.00000
   6       0.00000     0.00000     0.00000     0.00000     0.00000     0.00000
   7       0.00000     0.00000     1.00000     0.00000     0.00000     0.00000
   8       1.00000     0.00000     0.00000     0.00000     0.00000     0.00000
   9       0.00000     1.00000     0.00000     0.00000     0.00000     0.00000
  10       0.00000     0.00000     0.00000     0.00000     0.00000     0.00000
  11       0.00000     0.00000     0.00000     0.00000     0.00000     1.00000
  12       0.00000     0.00000     0.00000     0.00000     1.00000     0.00000
  13       0.00000     0.00000     0.00000     1.00000     0.00000     0.00000
  14       0.00000     0.00000     0.00000     0.00000     0.00000     0.00000
  15       0.00000     0.00000     0.00000     0.00000     0.00000     0.00000

           13          14          15  
       ----------- ----------- -----------
   1       0.00000     0.00000     0.00000
   2       0.00000     0.00000     0.00000
   3       0.00000     0.00000     0.00000
   4       0.00000     0.00000     0.00000
   5       0.00000     0.00000     0.00000
   6       0.00000     0.00000     0.00000
   7       0.00000     0.00000     0.00000
   8       0.00000     0.00000     0.00000
   9       0.00000     0.00000     0.00000
  10       0.00000     0.00000     1.00000
  11       0.00000     0.00000     0.00000
  12       0.00000     0.00000     0.00000
  13       0.00000     0.00000     0.00000
  14       0.00000     1.00000     0.00000
  15       1.00000     0.00000     0.00000

                   WFN1 Final beta Correlation Function Analysis
                   ---------------------------------------------


 global array: Cb[1:15,1:15],  handle: -987 

            1           2           3           4           5           6  
       ----------- ----------- ----------- ----------- ----------- -----------
   1       0.00000     0.00000     1.00000     0.00000     0.00000     0.00000
   2       0.00000     1.00000     0.00000     0.00000     0.00000     0.00000
   3       1.00000     0.00000     0.00000     0.00000     0.00000     0.00000
   4       0.00000     0.00000     0.00000     0.00000     0.00000     0.00000
   5       0.00000     0.00000     0.00000     0.00000     0.00000     0.00000
   6       0.00000     0.00000     0.00000     0.00000     0.00000     0.00000
   7       0.00000     0.00000     0.00000     0.00000     1.00000     0.00000
   8       0.00000     0.00000     0.00000     0.00000     0.00000     0.00000
   9       0.00000     0.00000     0.00000     0.00000     0.00000     0.00000
  10       0.00000     0.00000     0.00000     0.00000     0.00000     0.00000
  11       0.00000     0.00000     0.00000     1.00000     0.00000     0.00000
  12       0.00000     0.00000     0.00000     0.00000     0.00000     0.00000
  13       0.00000     0.00000     0.00000     0.00000     0.00000     1.00000
  14       0.00000     0.00000     0.00000     0.00000     0.00000     0.00000
  15       0.00000     0.00000     0.00000     0.00000     0.00000     0.00000

            7           8           9          10          11          12  
       ----------- ----------- ----------- ----------- ----------- -----------
   1       0.00000     0.00000     0.00000     0.00000     0.00000     0.00000
   2       0.00000     0.00000     0.00000     0.00000     0.00000     0.00000
   3       0.00000     0.00000     0.00000     0.00000     0.00000     0.00000
   4       0.00000     0.00000     0.00000     1.00000     0.00000     0.00000
   5       0.00000     0.00000     0.00000     0.00000     0.00000     1.00000
   6       0.00000     0.00000     0.00000     0.00000     0.00000     0.00000
   7       0.00000     0.00000     0.00000     0.00000     0.00000     0.00000
   8       1.00000     0.00000     0.00000     0.00000     0.00000     0.00000
   9       0.00000     0.00000     0.00000     0.00000     0.00000     0.00000
  10       0.00000     0.00000     0.00000     0.00000     1.00000     0.00000
  11       0.00000     0.00000     0.00000     0.00000     0.00000     0.00000
  12       0.00000     0.00000     1.00000     0.00000     0.00000     0.00000
  13       0.00000     0.00000     0.00000     0.00000     0.00000     0.00000
  14       0.00000     0.00000     0.00000     0.00000     0.00000     0.00000
  15       0.00000     1.00000     0.00000     0.00000     0.00000     0.00000

           13          14          15  
       ----------- ----------- -----------
   1       0.00000     0.00000     0.00000
   2       0.00000     0.00000     0.00000
   3       0.00000     0.00000     0.00000
   4       0.00000     0.00000     0.00000
   5       0.00000     0.00000     0.00000
   6       0.00000     0.00000     1.00000
   7       0.00000     0.00000     0.00000
   8       0.00000     0.00000     0.00000
   9       1.00000     0.00000     0.00000
  10       0.00000     0.00000     0.00000
  11       0.00000     0.00000     0.00000
  12       0.00000     0.00000     0.00000
  13       0.00000     0.00000     0.00000
  14       0.00000     1.00000     0.00000
  15       0.00000     0.00000     0.00000

                     WFN1 Final Alpha Natural Orbital Analysis
                     -----------------------------------------

 Vector    1  Occ=1.000000D+00  E=-2.071532D+01
              MO Center=  1.1D-08,  3.3D-08, -9.8D-09, r^2= 1.5D-02
   Bfn.  Coefficient  Atom+Function         Bfn.  Coefficient  Atom+Function  
  ----- ------------  ---------------      ----- ------------  ---------------
     1     -0.994022  1 O  s          

 Vector    2  Occ=1.000000D+00  E=-1.408171D+00
              MO Center= -5.1D-05,  8.2D-05, -3.0D-05, r^2= 4.3D-01
   Bfn.  Coefficient  Atom+Function         Bfn.  Coefficient  Atom+Function  
  ----- ------------  ---------------      ----- ------------  ---------------
     2     -0.585001  1 O  s                  6     -0.477152  1 O  s          
     1      0.234278  1 O  s          

 Vector    3  Occ=1.000000D+00  E=-7.003395D-01
              MO Center=  4.1D-05, -8.5D-05,  3.3D-05, r^2= 5.4D-01
   Bfn.  Coefficient  Atom+Function         Bfn.  Coefficient  Atom+Function  
  ----- ------------  ---------------      ----- ------------  ---------------
     4      0.591377  1 O  py                 8      0.383296  1 O  py         
     3     -0.283659  1 O  px                 5     -0.229903  1 O  pz         
     7     -0.183852  1 O  px                 9     -0.149011  1 O  pz         

 Vector    4  Occ=1.000000D+00  E=-7.003395D-01
              MO Center=  9.7D-06,  4.4D-06, -5.5D-07, r^2= 5.1D-01
   Bfn.  Coefficient  Atom+Function         Bfn.  Coefficient  Atom+Function  
  ----- ------------  ---------------      ----- ------------  ---------------
     3     -0.649596  1 O  px                 7     -0.387509  1 O  px         
     4     -0.297308  1 O  py                 8     -0.177355  1 O  py         
     5      0.036723  1 O  pz         

 Vector    5  Occ=1.000000D+00  E=-6.040217D-01
              MO Center=  2.7D-07, -9.1D-07, -2.7D-06, r^2= 5.1D-01
   Bfn.  Coefficient  Atom+Function         Bfn.  Coefficient  Atom+Function  
  ----- ------------  ---------------      ----- ------------  ---------------
     5     -0.674073  1 O  pz                 9     -0.402110  1 O  pz         
     4     -0.229868  1 O  py                 8     -0.137125  1 O  py         
     3      0.067099  1 O  px                 7      0.040027  1 O  px         

 Vector    6  Occ=0.000000D+00  E= 8.912840D-01
              MO Center=  4.2D-04,  3.2D-05, -8.5D-04, r^2= 1.4D+00
   Bfn.  Coefficient  Atom+Function         Bfn.  Coefficient  Atom+Function  
  ----- ------------  ---------------      ----- ------------  ---------------
     6     -2.184450  1 O  s                  2      1.327712  1 O  s          
    13      0.406268  1 O  dyy               10      0.398249  1 O  dxx        
    15      0.360132  1 O  dzz               12      0.091000  1 O  dxz        
    11     -0.088407  1 O  dxy               14     -0.030394  1 O  dyz        

 Vector    7  Occ=0.000000D+00  E= 1.036215D+00
              MO Center=  2.2D-03,  3.0D-04, -1.6D-04, r^2= 1.2D+00
   Bfn.  Coefficient  Atom+Function         Bfn.  Coefficient  Atom+Function  
  ----- ------------  ---------------      ----- ------------  ---------------
     8     -0.946393  1 O  py                 4      0.817559  1 O  py         
     7      0.452293  1 O  px                 3     -0.390753  1 O  px         
     9     -0.194252  1 O  pz                 5      0.157311  1 O  pz         

 Vector    8  Occ=0.000000D+00  E= 1.050730D+00
              MO Center= -1.6D-03,  5.5D-04, -1.4D-03, r^2= 1.2D+00
   Bfn.  Coefficient  Atom+Function         Bfn.  Coefficient  Atom+Function  
  ----- ------------  ---------------      ----- ------------  ---------------
     7      0.968665  1 O  px                 3     -0.818693  1 O  px         
     8      0.464262  1 O  py                 4     -0.392431  1 O  py         

 Vector    9  Occ=0.000000D+00  E= 1.081508D+00
              MO Center=  9.3D-05, -4.3D-04,  4.8D-04, r^2= 1.2D+00
   Bfn.  Coefficient  Atom+Function         Bfn.  Coefficient  Atom+Function  
  ----- ------------  ---------------      ----- ------------  ---------------
     9     -1.055400  1 O  pz                 5      0.895921  1 O  pz         
     8      0.165534  1 O  py                 4     -0.149942  1 O  py         
     7     -0.087160  1 O  px                 3      0.078480  1 O  px         

 Vector   10  Occ=0.000000D+00  E= 1.969796D+00
              MO Center= -5.9D-06,  9.1D-05,  5.1D-06, r^2= 8.9D-01
   Bfn.  Coefficient  Atom+Function         Bfn.  Coefficient  Atom+Function  
  ----- ------------  ---------------      ----- ------------  ---------------
     6      2.255311  1 O  s                 13     -1.336116  1 O  dyy        
    15     -1.322566  1 O  dzz               10     -1.304783  1 O  dxx        
     2      0.634706  1 O  s                  1     -0.398615  1 O  s          

 Vector   11  Occ=0.000000D+00  E= 1.975820D+00
              MO Center= -8.5D-04, -6.0D-04,  4.4D-04, r^2= 6.1D-01
   Bfn.  Coefficient  Atom+Function         Bfn.  Coefficient  Atom+Function  
  ----- ------------  ---------------      ----- ------------  ---------------
    12      1.258719  1 O  dxz               10      0.587223  1 O  dxx        
    11     -0.582157  1 O  dxy               13     -0.328073  1 O  dyy        
    15     -0.245241  1 O  dzz               14      0.198804  1 O  dyz        
     2     -0.088704  1 O  s                  6      0.082285  1 O  s          

 Vector   12  Occ=0.000000D+00  E= 1.980357D+00
              MO Center= -7.5D-04,  2.4D-04,  5.6D-04, r^2= 6.1D-01
   Bfn.  Coefficient  Atom+Function         Bfn.  Coefficient  Atom+Function  
  ----- ------------  ---------------      ----- ------------  ---------------
    11     -1.224785  1 O  dxy               12     -0.863227  1 O  dxz        
    14      0.813168  1 O  dyz               13     -0.176879  1 O  dyy        
    10      0.107649  1 O  dxx               15      0.062206  1 O  dzz        

 Vector   13  Occ=0.000000D+00  E= 1.981328D+00
              MO Center=  4.8D-04,  4.9D-05,  7.5D-04, r^2= 6.1D-01
   Bfn.  Coefficient  Atom+Function         Bfn.  Coefficient  Atom+Function  
  ----- ------------  ---------------      ----- ------------  ---------------
    14      1.239785  1 O  dyz               15      0.571944  1 O  dzz        
    11      0.514591  1 O  dxy               12      0.502898  1 O  dxz        
    10     -0.343340  1 O  dxx               13     -0.165712  1 O  dyy        
     6     -0.083922  1 O  s          

 Vector   14  Occ=0.000000D+00  E= 1.991505D+00
              MO Center= -3.1D-05, -7.1D-05, -6.2D-05, r^2= 6.2D-01
   Bfn.  Coefficient  Atom+Function         Bfn.  Coefficient  Atom+Function  
  ----- ------------  ---------------      ----- ------------  ---------------
    11      0.782898  1 O  dxy               13     -0.711188  1 O  dyy        
    10      0.697834  1 O  dxx               12     -0.612465  1 O  dxz        
     6     -0.136443  1 O  s                 15      0.110567  1 O  dzz        
     2      0.047906  1 O  s          

 Vector   15  Occ=0.000000D+00  E= 3.502012D+00
              MO Center= -1.1D-05, -1.7D-04,  1.9D-04, r^2= 6.1D-01
   Bfn.  Coefficient  Atom+Function         Bfn.  Coefficient  Atom+Function  
  ----- ------------  ---------------      ----- ------------  ---------------
    14     -0.871998  1 O  dyz               15      0.784375  1 O  dzz        
    11     -0.524284  1 O  dxy               13     -0.524772  1 O  dyy        
    10     -0.274132  1 O  dxx               12      0.182090  1 O  dxz        


                     WFN1 Final Beta Natural Orbital Analysis
                     ----------------------------------------

 Vector    1  Occ=1.000000D+00  E=-2.063796D+01
              MO Center= -2.0D-07,  4.1D-07, -1.6D-07, r^2= 5.8D-01
   Bfn.  Coefficient  Atom+Function         Bfn.  Coefficient  Atom+Function  
  ----- ------------  ---------------      ----- ------------  ---------------
     4     -0.561422  1 O  py                 8     -0.417060  1 O  py         
     3      0.269298  1 O  px                 5      0.218267  1 O  pz         
     7      0.200051  1 O  px                 9      0.162143  1 O  pz         

 Vector    2  Occ=1.000000D+00  E=-1.070677D+00
              MO Center= -1.9D-07,  4.0D-07, -1.5D-07, r^2= 4.7D-01
   Bfn.  Coefficient  Atom+Function         Bfn.  Coefficient  Atom+Function  
  ----- ------------  ---------------      ----- ------------  ---------------
     6     -0.559898  1 O  s                  2     -0.519748  1 O  s          
     1      0.227668  1 O  s                 11      0.028003  1 O  dxy        

 Vector    3  Occ=1.000000D+00  E=-5.152702D-01
              MO Center=  3.8D-07, -8.0D-07,  3.1D-07, r^2= 1.5D-02
   Bfn.  Coefficient  Atom+Function         Bfn.  Coefficient  Atom+Function  
  ----- ------------  ---------------      ----- ------------  ---------------
     1     -0.995633  1 O  s          

 Vector    4  Occ=0.000000D+00  E= 1.066864D+00
              MO Center= -1.7D-01, -3.3D-02, -4.4D-02, r^2= 1.3D+00
   Bfn.  Coefficient  Atom+Function         Bfn.  Coefficient  Atom+Function  
  ----- ------------  ---------------      ----- ------------  ---------------
     6     -2.136785  1 O  s                 11      0.937193  1 O  dxy        
    13      0.716906  1 O  dyy                2      0.701254  1 O  s          
    15      0.684703  1 O  dzz               10      0.612631  1 O  dxx        
    12      0.353387  1 O  dxz                7      0.280611  1 O  px         
    14      0.183823  1 O  dyz                8      0.169648  1 O  py         

 Vector    5  Occ=0.000000D+00  E= 1.140958D+00
              MO Center=  1.8D-01,  1.6D-01,  9.1D-02, r^2= 7.2D-01
   Bfn.  Coefficient  Atom+Function         Bfn.  Coefficient  Atom+Function  
  ----- ------------  ---------------      ----- ------------  ---------------
     2      1.245715  1 O  s                  6     -0.779016  1 O  s          
    11     -0.765263  1 O  dxy               12     -0.270145  1 O  dxz        
    13     -0.226584  1 O  dyy               15     -0.223492  1 O  dzz        
     7     -0.221953  1 O  px                14     -0.157244  1 O  dyz        
    10     -0.155141  1 O  dxx                1     -0.147124  1 O  s          

 Vector    6  Occ=0.000000D+00  E= 1.199229D+00
              MO Center=  5.8D-02,  7.7D-02,  4.7D-02, r^2= 9.3D-01
   Bfn.  Coefficient  Atom+Function         Bfn.  Coefficient  Atom+Function  
  ----- ------------  ---------------      ----- ------------  ---------------
     6     -2.152051  1 O  s                 10      1.225096  1 O  dxx        
    15      1.169278  1 O  dzz               13      1.163081  1 O  dyy        
    11     -0.664538  1 O  dxy                2     -0.452160  1 O  s          
     1      0.349494  1 O  s                 12     -0.237891  1 O  dxz        
     7     -0.191030  1 O  px                14     -0.138724  1 O  dyz        

 Vector    7  Occ=0.000000D+00  E= 1.299851D+00
              MO Center=  1.1D-03, -1.2D-03,  3.5D-04, r^2= 1.1D+00
   Bfn.  Coefficient  Atom+Function         Bfn.  Coefficient  Atom+Function  
  ----- ------------  ---------------      ----- ------------  ---------------
     8     -0.891748  1 O  py                 4      0.807998  1 O  py         
     7      0.426093  1 O  px                 3     -0.388069  1 O  px         
     9      0.344972  1 O  pz                 5     -0.311794  1 O  pz         

 Vector    8  Occ=0.000000D+00  E= 1.354239D+00
              MO Center= -2.2D-01, -2.2D-02, -4.5D-02, r^2= 5.7D-01
   Bfn.  Coefficient  Atom+Function         Bfn.  Coefficient  Atom+Function  
  ----- ------------  ---------------      ----- ------------  ---------------
    11     -0.572039  1 O  dxy               14     -0.499967  1 O  dyz        
    13      0.496085  1 O  dyy               10     -0.473389  1 O  dxx        
     3      0.455083  1 O  px                 5     -0.345687  1 O  pz         
     9      0.332465  1 O  pz                 8      0.207245  1 O  py         
     7      0.165552  1 O  px                 4      0.085182  1 O  py         

 Vector    9  Occ=0.000000D+00  E= 1.405531D+00
              MO Center=  2.3D-02, -1.8D-01,  1.9D-01, r^2= 6.9D-01
   Bfn.  Coefficient  Atom+Function         Bfn.  Coefficient  Atom+Function  
  ----- ------------  ---------------      ----- ------------  ---------------
    14      0.920406  1 O  dyz               15     -0.649041  1 O  dzz        
    11     -0.416732  1 O  dxy                9     -0.389163  1 O  pz         
    13      0.353404  1 O  dyy               10      0.284689  1 O  dxx        
     7      0.253329  1 O  px                12      0.241214  1 O  dxz        
     8     -0.030035  1 O  py         

 Vector   10  Occ=0.000000D+00  E= 1.507568D+00
              MO Center= -6.5D-02, -1.1D-02, -1.1D-01, r^2= 7.3D-01
   Bfn.  Coefficient  Atom+Function         Bfn.  Coefficient  Atom+Function  
  ----- ------------  ---------------      ----- ------------  ---------------
    12     -0.925412  1 O  dxz               14      0.562560  1 O  dyz        
     5      0.540105  1 O  pz                 9     -0.440277  1 O  pz         
    15      0.386233  1 O  dzz                7      0.374006  1 O  px         
    10     -0.364364  1 O  dxx                4      0.198073  1 O  py         
    11      0.048093  1 O  dxy        

 Vector   11  Occ=0.000000D+00  E= 1.608368D+00
              MO Center=  8.2D-02, -9.2D-02, -1.3D-01, r^2= 6.5D-01
   Bfn.  Coefficient  Atom+Function         Bfn.  Coefficient  Atom+Function  
  ----- ------------  ---------------      ----- ------------  ---------------
     5     -0.615713  1 O  pz                14      0.563031  1 O  dyz        
     7     -0.551639  1 O  px                 3      0.467010  1 O  px         
    15      0.316911  1 O  dzz               12     -0.310574  1 O  dxz        
     8     -0.276121  1 O  py                10     -0.255298  1 O  dxx        
    11      0.164078  1 O  dxy               13     -0.038752  1 O  dyy        

 Vector   12  Occ=0.000000D+00  E= 1.645563D+00
              MO Center=  5.1D-02,  7.8D-03,  1.5D-01, r^2= 7.2D-01
   Bfn.  Coefficient  Atom+Function         Bfn.  Coefficient  Atom+Function  
  ----- ------------  ---------------      ----- ------------  ---------------
    14     -0.778957  1 O  dyz               13      0.521546  1 O  dyy        
     9     -0.507438  1 O  pz                11      0.401460  1 O  dxy        
     3     -0.396009  1 O  px                10     -0.343877  1 O  dxx        
    12     -0.274302  1 O  dxz               15     -0.199595  1 O  dzz        
     4     -0.164911  1 O  py                 8     -0.151578  1 O  py         

 Vector   13  Occ=0.000000D+00  E= 1.714180D+00
              MO Center=  1.3D-01,  2.6D-02, -1.1D-01, r^2= 7.7D-01
   Bfn.  Coefficient  Atom+Function         Bfn.  Coefficient  Atom+Function  
  ----- ------------  ---------------      ----- ------------  ---------------
    13      0.558170  1 O  dyy                7     -0.547067  1 O  px         
    14      0.504107  1 O  dyz                5      0.366447  1 O  pz         
    10     -0.340001  1 O  dxx               11      0.322283  1 O  dxy        
     9      0.235667  1 O  pz                 4      0.223079  1 O  py         
    15     -0.221688  1 O  dzz               12      0.179082  1 O  dxz        

 Vector   14  Occ=0.000000D+00  E= 1.971359D+00
              MO Center= -9.0D-02, -4.0D-03, -8.6D-02, r^2= 7.0D-01
   Bfn.  Coefficient  Atom+Function         Bfn.  Coefficient  Atom+Function  
  ----- ------------  ---------------      ----- ------------  ---------------
    12     -1.264622  1 O  dxz               15     -0.474744  1 O  dzz        
    10      0.413184  1 O  dxx                9      0.402019  1 O  pz         
    11      0.391492  1 O  dxy                5     -0.258248  1 O  pz         
     8      0.124926  1 O  py                14     -0.107066  1 O  dyz        
     3      0.105337  1 O  px                13      0.071629  1 O  dyy        

 Vector   15  Occ=0.000000D+00  E= 3.121009D+00
              MO Center=  1.4D-02,  7.0D-02,  4.1D-02, r^2= 6.6D-01
   Bfn.  Coefficient  Atom+Function         Bfn.  Coefficient  Atom+Function  
  ----- ------------  ---------------      ----- ------------  ---------------
     3      0.700483  1 O  px                14     -0.564598  1 O  dyz        
     9     -0.485942  1 O  pz                 4      0.482807  1 O  py         
    11      0.381046  1 O  dxy                5      0.377540  1 O  pz         
     8     -0.341836  1 O  py                 7     -0.318724  1 O  px         
    10      0.299929  1 O  dxx               12      0.164696  1 O  dxz        


 Task  times  cpu:       86.7s     wall:       93.1s


                                NWChem Input Module
                                -------------------



                                NWChem WFN1 Module
                                ------------------



      Superposition of Atomic Density Guess
      -------------------------------------

 Sum of atomic energies:         -74.75435223

      Non-variational initial energy
      ------------------------------

 Total energy =     -74.250355
 1-e energy   =    -103.191043
 2-e energy   =      28.940688
 HOMO         =      -0.368773
 LUMO         =      -0.368773

 iteration              energy           error          err Na          err Nb          err Ca          err Cb
 ---------              ------           -----          ------          ------          ------          ------
         1        -76.64340304        0.811569        0.055464        0.007632        0.267704        0.480769
         2        -76.66210485        1.009542        0.015688        0.244596        0.261600        0.487658
         3        -76.70259235        0.471268        0.019465        0.223226        0.122941        0.105635
         4        -76.70724280        0.255446        0.014553        0.012275        0.122874        0.105744
         5        -76.71269840        0.238475        0.013885        0.012281        0.106088        0.106221
         6        -76.71337917        0.238597        0.012120        0.013574        0.106032        0.106871
         7        -76.71598171        0.194975        0.013215        0.013588        0.107586        0.060586
         8        -76.71693343        0.204764        0.013986        0.022195        0.107485        0.061098
         9        -76.71873931        0.261475        0.013795        0.022508        0.103569        0.121602
        10        -76.71908410        0.235625        0.008680        0.001313        0.103622        0.122009
        11        -76.72002859        1.306226        0.009153        0.001396        0.842944        0.452733
        12        -76.72086133        1.335083        0.030439        0.009704        0.841427        0.453514
        13        -76.72123049        0.220351        0.030446        0.009704        0.132098        0.048104
        14        -76.72129003        0.186735        0.004740        0.001458        0.132277        0.048260
        15        -76.72148070        0.589400        0.004757        0.001459        0.436281        0.146903
        16        -76.72148865        0.587816        0.003867        0.000699        0.436231        0.147018
        17        -76.72169045        0.207079        0.003872        0.000699        0.154451        0.048057
        18        -76.72170157        0.206753        0.003461        0.000583        0.154437        0.048271
        19        -76.72187299        0.480026        0.003474        0.000584        0.377816        0.098153
        20        -76.72188296        0.479742        0.003098        0.000535        0.377751        0.098358
        21        -76.72206513        0.231959        0.003104        0.000536        0.179861        0.048458
        22        -76.72206514        0.231955        0.003096        0.000535        0.179861        0.048463
        23        -76.72223234        0.430121        0.003108        0.000535        0.351495        0.074982
        24        -76.72223234        0.430118        0.003104        0.000535        0.351495        0.074985
        25        -76.72240925        0.257870        0.003111        0.000535        0.206740        0.047483
        26        -76.72240925        0.257869        0.003109        0.000535        0.206740        0.047485
        27        -76.72257881        0.406931        0.003119        0.000536        0.341548        0.061728
        28        -76.72257881        0.406930        0.003117        0.000535        0.341548        0.061729
        29        -76.72275762        0.284498        0.003124        0.000536        0.234960        0.045878
        30        -76.72275762        0.284497        0.003123        0.000535        0.234960        0.045879
        31        -76.72293359        0.397410        0.003132        0.000536        0.340507        0.053234
        32        -76.72293359        0.397408        0.003130        0.000536        0.340507        0.053236
        33        -76.72311858        0.310526        0.003137        0.000536        0.263008        0.043844
        34        -76.72311858        0.310525        0.003135        0.000536        0.263008        0.043845
        35        -76.72330388        0.394942        0.003144        0.000536        0.343980        0.047281
        36        -76.72330388        0.394941        0.003142        0.000536        0.343980        0.047283
        37        -76.72349814        0.333637        0.003150        0.000537        0.288397        0.041553
        38        -76.72349814        0.333636        0.003147        0.000536        0.288397        0.041555
        39        -76.72369511        0.394300        0.003156        0.000537        0.347812        0.042794
        40        -76.72369511        0.394298        0.003153        0.000537        0.347812        0.042796
        41        -76.72390110        0.350322        0.003162        0.000537        0.307470        0.039154
        42        -76.72390110        0.350320        0.003158        0.000537        0.307469        0.039156
        43        -76.72411174        0.390153        0.003168        0.000537        0.347228        0.039221
        44        -76.72411174        0.390151        0.003164        0.000537        0.347227        0.039223
        45        -76.72433159        0.356192        0.003173        0.000538        0.315698        0.036784
        46        -76.72433159        0.356190        0.003169        0.000537        0.315698        0.036786
        47        -76.72455766        0.377240        0.003178        0.000538        0.337229        0.036295
        48        -76.72455766        0.377237        0.003174        0.000537        0.337228        0.036298
        49        -76.72479323        0.347323        0.003183        0.000538        0.309015        0.034586
        50        -76.72479323        0.347321        0.003179        0.000538        0.309015        0.034589
        51        -76.72503632        0.351968        0.003188        0.000539        0.314325        0.033917
        52        -76.72503632        0.351966        0.003183        0.000538        0.314325        0.033920
        53        -76.72528927        0.322530        0.003193        0.000539        0.286103        0.032696
        54        -76.72528928        0.322527        0.003188        0.000538        0.286102        0.032699
        55        -76.72555085        0.314561        0.003198        0.000539        0.278766        0.032058
        56        -76.72555086        0.314558        0.003192        0.000539        0.278765        0.032062
        57        -76.72582274        0.285056        0.003202        0.000539        0.250119        0.031195
        58        -76.72582275        0.285053        0.003196        0.000539        0.250119        0.031199
        59        -76.72610421        0.269577        0.003207        0.000540        0.235146        0.030685
        60        -76.72610421        0.269574        0.003201        0.000539        0.235145        0.030689
        61        -76.72639648        0.241607        0.003211        0.000540        0.207770        0.030086
        62        -76.72639649        0.241603        0.003205        0.000539        0.207769        0.030090
        63        -76.72669916        0.223630        0.003215        0.000541        0.190164        0.029710
        64        -76.72669916        0.223627        0.003209        0.000540        0.190163        0.029715
        65        -76.72701313        0.199123        0.003219        0.000541        0.166072        0.029290
        66        -76.72701314        0.199119        0.003212        0.000540        0.166072        0.029295
        67        -76.72733818        0.182151        0.003224        0.000541        0.149370        0.029016
        68        -76.72733818        0.182148        0.003216        0.000541        0.149370        0.029021
        69        -76.72767491        0.162129        0.003228        0.000542        0.129657        0.028702
        70        -76.72767492        0.162125        0.003220        0.000541        0.129657        0.028708
        71        -76.72802315        0.147829        0.003232        0.000542        0.115567        0.028488
        72        -76.72802315        0.147825        0.003223        0.000541        0.115567        0.028494
        73        -76.72838325        0.132280        0.003235        0.000543        0.100273        0.028229
        74        -76.72838326        0.132276        0.003227        0.000542        0.100273        0.028235
        75        -76.72875499        0.120998        0.003239        0.000543        0.089174        0.028042
        76        -76.72875500        0.120994        0.003230        0.000542        0.089174        0.028048
        77        -76.72913848        0.109301        0.003243        0.000544        0.077712        0.027803
        78        -76.72913849        0.109297        0.003233        0.000543        0.077712        0.027809
        79        -76.72953337        0.100722        0.003247        0.000544        0.069309        0.027622
        80        -76.72953338        0.100718        0.003237        0.000543        0.069309        0.027629
        81        -76.72993953        0.092070        0.003251        0.000545        0.060890        0.027385
        82        -76.72993954        0.092066        0.003240        0.000544        0.060890        0.027391
        83        -76.73035644        0.085662        0.003254        0.000546        0.054663        0.027199
        84        -76.73035645        0.085657        0.003243        0.000544        0.054663        0.027206
        85        -76.73078374        0.079295        0.003258        0.000546        0.048538        0.026953
        86        -76.73078374        0.079290        0.003247        0.000545        0.048538        0.026960
        87        -76.73122071        0.074530        0.003262        0.000547        0.043966        0.026756
        88        -76.73122072        0.074525        0.003250        0.000545        0.043966        0.026764
        89        -76.73166675        0.069825        0.003265        0.000547        0.039517        0.026496
        90        -76.73166676        0.069820        0.003253        0.000546        0.039517        0.026504
        91        -76.73212097        0.066264        0.003269        0.000548        0.036162        0.026285
        92        -76.73212098        0.066259        0.003256        0.000547        0.036162        0.026293
        93        -76.73258252        0.062743        0.003273        0.000549        0.032913        0.026009
        94        -76.73258253        0.062737        0.003260        0.000547        0.032913        0.026017
        95        -76.73305034        0.060044        0.003276        0.000550        0.030436        0.025783
        96        -76.73305035        0.060038        0.003263        0.000548        0.030436        0.025791
        97        -76.73352340        0.057355        0.003280        0.000550        0.028034        0.025491
        98        -76.73352341        0.057349        0.003266        0.000549        0.028035        0.025499
        99        -76.73400047        0.055266        0.003284        0.000551        0.026182        0.025249
       100        -76.73400049        0.055259        0.003269        0.000549        0.026183        0.025257
       101        -76.73448038        0.053157        0.003287        0.000552        0.024377        0.024941
       102        -76.73448040        0.053150        0.003273        0.000550        0.024377        0.024950
       103        -76.73496181        0.051495        0.003291        0.000553        0.022967        0.024684
       104        -76.73496182        0.051488        0.003276        0.000551        0.022967        0.024693
       105        -76.73544347        0.049789        0.003295        0.000554        0.021579        0.024362
       106        -76.73544348        0.049782        0.003280        0.000552        0.021579        0.024371
       107        -76.73592400        0.048425        0.003299        0.000554        0.020481        0.024091
       108        -76.73592402        0.048418        0.003283        0.000553        0.020481        0.024101
       109        -76.73640211        0.047000        0.003302        0.000555        0.019385        0.023757
       110        -76.73640213        0.046992        0.003287        0.000554        0.019386        0.023766
       111        -76.73687644        0.045847        0.003306        0.000556        0.018509        0.023475
       112        -76.73687646        0.045839        0.003290        0.000554        0.018510        0.023484
       113        -76.73734575        0.044619        0.003310        0.000557        0.017622        0.023131
       114        -76.73734577        0.044611        0.003294        0.000555        0.017622        0.023140
       115        -76.73780876        0.043617        0.003314        0.000558        0.016906        0.022839
       116        -76.73780878        0.043608        0.003298        0.000556        0.016907        0.022848
       117        -76.73826435        0.042534        0.003317        0.000559        0.016169        0.022488
       118        -76.73826437        0.042525        0.003301        0.000557        0.016169        0.022497
       119        -76.73871140        0.041643        0.003321        0.000560        0.015572        0.022189
       120        -76.73871141        0.041634        0.003305        0.000558        0.015573        0.022198
       121        -76.73914893        0.040670        0.003325        0.000561        0.014948        0.021836
       122        -76.73914895        0.040661        0.003309        0.000559        0.014949        0.021845
       123        -76.73957604        0.039867        0.003329        0.000562        0.014443        0.021533
       124        -76.73957606        0.039858        0.003313        0.000560        0.014444        0.021542
       125        -76.73999196        0.038983        0.003332        0.000563        0.013908        0.021180
       126        -76.73999198        0.038974        0.003316        0.000561        0.013908        0.021188
       127        -76.74039601        0.038252        0.003336        0.000564        0.013476        0.020876
       128        -76.74039603        0.038243        0.003320        0.000562        0.013477        0.020885
       129        -76.74078767        0.037445        0.003340        0.000565        0.013014        0.020526
       130        -76.74078768        0.037436        0.003324        0.000563        0.013014        0.020535
       131        -76.74116648        0.036778        0.003343        0.000566        0.012644        0.020225
       132        -76.74116650        0.036769        0.003328        0.000564        0.012644        0.020233
       133        -76.74153217        0.036040        0.003347        0.000567        0.012244        0.019882
       134        -76.74153219        0.036031        0.003332        0.000565        0.012244        0.019890
       135        -76.74188452        0.035431        0.003351        0.000567        0.011928        0.019585
       136        -76.74188454        0.035422        0.003335        0.000566        0.011928        0.019593
       137        -76.74222347        0.034757        0.003354        0.000568        0.011583        0.019252
       138        -76.74222349        0.034748        0.003339        0.000567        0.011583        0.019260
       139        -76.74254903        0.034203        0.003358        0.000569        0.011314        0.018963
       140        -76.74254904        0.034195        0.003343        0.000568        0.011314        0.018970
       141        -76.74286132        0.033590        0.003361        0.000570        0.011017        0.018641
       142        -76.74286133        0.033581        0.003346        0.000568        0.011018        0.018648
       143        -76.74316053        0.033087        0.003364        0.000571        0.010791        0.018361
       144        -76.74316055        0.033078        0.003350        0.000569        0.010791        0.018368
       145        -76.74344695        0.032530        0.003367        0.000572        0.010538        0.018053
       146        -76.74344696        0.032521        0.003354        0.000570        0.010538        0.018060
       147        -76.74372091        0.032075        0.003371        0.000573        0.010348        0.017784
       148        -76.74372092        0.032067        0.003357        0.000571        0.010348        0.017791
       149        -76.74398280        0.031571        0.003374        0.000573        0.010133        0.017490
       150        -76.74398281        0.031562        0.003361        0.000572        0.010133        0.017497
       151        -76.74423306        0.031160        0.003377        0.000574        0.009975        0.017233
       152        -76.74423307        0.031151        0.003364        0.000573        0.009975        0.017239
       153        -76.74447216        0.030703        0.003380        0.000575        0.009793        0.016955
       154        -76.74447217        0.030694        0.003367        0.000573        0.009793        0.016961
       155        -76.74470060        0.030331        0.003383        0.000576        0.009662        0.016710
       156        -76.74470061        0.030323        0.003370        0.000574        0.009662        0.016716
       157        -76.74491889        0.029916        0.003385        0.000576        0.009508        0.016447
       158        -76.74491890        0.029908        0.003374        0.000575        0.009508        0.016452
       159        -76.74512754        0.029579        0.003388        0.000577        0.009399        0.016215
       160        -76.74512755        0.029571        0.003377        0.000576        0.009399        0.016220
       161        -76.74532709        0.029201        0.003391        0.000578        0.009267        0.015966
       162        -76.74532709        0.029194        0.003380        0.000576        0.009267        0.015971
       163        -76.74551803        0.028894        0.003393        0.000578        0.009175        0.015747
       164        -76.74551804        0.028886        0.003382        0.000577        0.009175        0.015752
       165        -76.74570090        0.028548        0.003395        0.000579        0.009060        0.015513
       166        -76.74570091        0.028541        0.003385        0.000578        0.009060        0.015518
       167        -76.74587617        0.028265        0.003398        0.000579        0.008981        0.015307
       168        -76.74587617        0.028258        0.003388        0.000578        0.008981        0.015311
       169        -76.74604432        0.027945        0.003400        0.000580        0.008879        0.015087
       170        -76.74604433        0.027939        0.003390        0.000579        0.008879        0.015091
       171        -76.74620581        0.027682        0.003402        0.000580        0.008808        0.014892
       172        -76.74620582        0.027676        0.003393        0.000579        0.008808        0.014896
       173        -76.74636107        0.027384        0.003404        0.000581        0.008715        0.014685
       174        -76.74636108        0.027378        0.003395        0.000580        0.008714        0.014689
       175        -76.74651051        0.027137        0.003406        0.000581        0.008649        0.014501
       176        -76.74651052        0.027131        0.003398        0.000580        0.008649        0.014505
       177        -76.74665452        0.026856        0.003408        0.000582        0.008560        0.014306
       178        -76.74665452        0.026850        0.003400        0.000581        0.008560        0.014310
       179        -76.74679345        0.026621        0.003410        0.000582        0.008496        0.014133
       180        -76.74679345        0.026616        0.003402        0.000581        0.008496        0.014137
       181        -76.74692763        0.026354        0.003412        0.000582        0.008410        0.013950
       182        -76.74692764        0.026349        0.003404        0.000581        0.008410        0.013953
       183        -76.74705739        0.026129        0.003413        0.000583        0.008346        0.013787
       184        -76.74705739        0.026123        0.003406        0.000582        0.008346        0.013790
       185        -76.74718300        0.025872        0.003415        0.000583        0.008260        0.013614
       186        -76.74718300        0.025867        0.003408        0.000582        0.008260        0.013617
       187        -76.74730472        0.025653        0.003416        0.000583        0.008194        0.013460
       188        -76.74730473        0.025648        0.003410        0.000583        0.008193        0.013463
       189        -76.74742280        0.025404        0.003418        0.000584        0.008106        0.013297
       190        -76.74742281        0.025400        0.003411        0.000583        0.008106        0.013300
       191        -76.74753746        0.025191        0.003419        0.000584        0.008036        0.013152
       192        -76.74753746        0.025186        0.003413        0.000583        0.008036        0.013154
       193        -76.74764889        0.024948        0.003420        0.000584        0.007946        0.012998
       194        -76.74764890        0.024944        0.003414        0.000583        0.007946        0.013000
       195        -76.74775728        0.024738        0.003421        0.000584        0.007872        0.012860
       196        -76.74775728        0.024734        0.003416        0.000584        0.007872        0.012862
       197        -76.74786279        0.024500        0.003423        0.000584        0.007779        0.012714
       198        -76.74786279        0.024496        0.003417        0.000584        0.007778        0.012717
       199        -76.74796556        0.024293        0.003424        0.000585        0.007700        0.012584
       200        -76.74796557        0.024289        0.003418        0.000584        0.007700        0.012586
       201        -76.74806574        0.024059        0.003425        0.000585        0.007603        0.012446
       202        -76.74806574        0.024055        0.003420        0.000584        0.007603        0.012448
       203        -76.74816344        0.023854        0.003426        0.000585        0.007521        0.012323
       204        -76.74816344        0.023851        0.003421        0.000584        0.007521        0.012324
       205        -76.74825877        0.023624        0.003427        0.000585        0.007421        0.012192
       206        -76.74825877        0.023620        0.003422        0.000585        0.007420        0.012193
       207        -76.74835182        0.023421        0.003427        0.000585        0.007334        0.012074
       208        -76.74835182        0.023418        0.003423        0.000585        0.007334        0.012076
       209        -76.74844269        0.023194        0.003428        0.000585        0.007231        0.011950
       210        -76.74844269        0.023191        0.003424        0.000585        0.007230        0.011951
       211        -76.74853146        0.022993        0.003429        0.000585        0.007141        0.011838
       212        -76.74853146        0.022990        0.003425        0.000585        0.007141        0.011840
       213        -76.74861818        0.022770        0.003430        0.000586        0.007035        0.011720
       214        -76.74861818        0.022766        0.003426        0.000585        0.007035        0.011721
       215        -76.74870294        0.022571        0.003430        0.000586        0.006942        0.011613
       216        -76.74870294        0.022568        0.003427        0.000585        0.006942        0.011615
       217        -76.74878578        0.022351        0.003431        0.000586        0.006834        0.011500
       218        -76.74878578        0.022348        0.003427        0.000585        0.006834        0.011502
       219        -76.74886676        0.022155        0.003432        0.000586        0.006739        0.011399
       220        -76.74886676        0.022152        0.003428        0.000585        0.006739        0.011400
       221        -76.74894592        0.021939        0.003432        0.000586        0.006630        0.011291
       222        -76.74894592        0.021936        0.003429        0.000585        0.006630        0.011293
       223        -76.74902332        0.021746        0.003433        0.000586        0.006534        0.011194
       224        -76.74902332        0.021744        0.003429        0.000585        0.006533        0.011196
       225        -76.74909898        0.021534        0.003433        0.000586        0.006424        0.011091
       226        -76.74909898        0.021532        0.003430        0.000585        0.006424        0.011093
       227        -76.74917296        0.021345        0.003433        0.000586        0.006327        0.010999
       228        -76.74917296        0.021343        0.003430        0.000585        0.006327        0.011000
       229        -76.74924528        0.021138        0.003434        0.000586        0.006218        0.010900
       230        -76.74924528        0.021135        0.003431        0.000586        0.006218        0.010901
       231        -76.74931597        0.020953        0.003434        0.000586        0.006121        0.010811
       232        -76.74931597        0.020950        0.003431        0.000586        0.006121        0.010813
       233        -76.74938507        0.020750        0.003435        0.000586        0.006013        0.010717
       234        -76.74938507        0.020748        0.003432        0.000586        0.006013        0.010718
       235        -76.74945261        0.020570        0.003435        0.000586        0.005917        0.010632
       236        -76.74945261        0.020567        0.003432        0.000586        0.005917        0.010633
       237        -76.74951861        0.020373        0.003435        0.000586        0.005811        0.010541
       238        -76.74951861        0.020371        0.003432        0.000586        0.005811        0.010542
       239        -76.74958310        0.020197        0.003435        0.000586        0.005716        0.010460
       240        -76.74958310        0.020195        0.003433        0.000585        0.005716        0.010460
       241        -76.74964611        0.020006        0.003435        0.000586        0.005612        0.010373
       242        -76.74964611        0.020004        0.003433        0.000585        0.005612        0.010373
       243        -76.74970767        0.019835        0.003436        0.000586        0.005520        0.010294
       244        -76.74970767        0.019833        0.003433        0.000585        0.005520        0.010295
       245        -76.74976780        0.019650        0.003436        0.000586        0.005419        0.010210
       246        -76.74976780        0.019648        0.003433        0.000585        0.005419        0.010211
       247        -76.74982652        0.019485        0.003436        0.000586        0.005329        0.010135
       248        -76.74982652        0.019483        0.003433        0.000585        0.005329        0.010135
       249        -76.74988386        0.019307        0.003436        0.000586        0.005231        0.010054
       250        -76.74988386        0.019305        0.003434        0.000585        0.005231        0.010055
       251        -76.74993985        0.019147        0.003436        0.000586        0.005144        0.009981
       252        -76.74993985        0.019145        0.003434        0.000585        0.005144        0.009982
       253        -76.74999450        0.018975        0.003436        0.000586        0.005050        0.009903
       254        -76.74999450        0.018973        0.003434        0.000585        0.005050        0.009904
       255        -76.75004786        0.018821        0.003436        0.000585        0.004967        0.009833
       256        -76.75004786        0.018820        0.003434        0.000585        0.004967        0.009834
       257        -76.75009993        0.018656        0.003436        0.000585        0.004877        0.009758
       258        -76.75009993        0.018655        0.003434        0.000585        0.004877        0.009759
       259        -76.75015074        0.018509        0.003436        0.000585        0.004797        0.009690
       260        -76.75015074        0.018507        0.003434        0.000585        0.004797        0.009691
       261        -76.75020033        0.018350        0.003436        0.000585        0.004711        0.009618
       262        -76.75020033        0.018349        0.003434        0.000585        0.004711        0.009619
       263        -76.75024871        0.018209        0.003436        0.000585        0.004636        0.009552
       264        -76.75024871        0.018207        0.003434        0.000585        0.004636        0.009553
       265        -76.75029591        0.018058        0.003436        0.000585        0.004554        0.009482
       266        -76.75029591        0.018056        0.003434        0.000585        0.004554        0.009483
       267        -76.75034195        0.017922        0.003436        0.000585        0.004483        0.009418
       268        -76.75034195        0.017921        0.003434        0.000585        0.004483        0.009419
       269        -76.75038686        0.017778        0.003436        0.000585        0.004406        0.009351
       270        -76.75038686        0.017776        0.003434        0.000585        0.004406        0.009352
[...]
   8       0.26503    -0.03837     0.00001    -0.00000     0.00000     0.00000
   9      -0.63663     0.00546     0.00601     0.00000     0.00000    -0.00000
  10      -0.00000     0.00000    -0.00000     0.81160    -0.41410     0.40921
  11      -0.00000     0.00000     0.00000     0.45884     0.81962    -0.03996
  12       0.00000    -0.00000    -0.00000     0.27150    -0.33414    -0.83604
  13       0.00000    -0.00000    -0.00000    -0.23888    -0.21236     0.36331
  14       0.00000    -0.00000     0.00000    -0.00007     0.00000    -0.00000
  15      -0.00000    -0.00000     0.00000    -0.00000     0.00000     0.00000

           13          14          15  
       ----------- ----------- -----------
   1      -0.00000     0.00000    -0.00000
   2       0.00000    -0.00000     0.00000
   3      -0.00000    -0.00000    -0.00000
   4       0.00000     0.00000     0.00000
   5      -0.00000     0.00000    -0.00000
   6       0.00000    -0.00000     0.00000
   7      -0.00000    -0.00000    -0.00000
   8       0.00000     0.00000     0.00000
   9      -0.00000     0.00000    -0.00000
  10      -0.04883    -0.00006     0.00000
  11       0.34073    -0.00001     0.00000
  12       0.34011     0.00000    -0.00000
  13       0.87513     0.00007    -0.00000
  14       0.00007    -1.00000    -0.00000
  15       0.00000    -0.00000     1.00000

                     WFN1 Final Alpha Natural Orbital Analysis
                     -----------------------------------------

 Vector    1  Occ=1.000000D+00  E=-1.944934D+01
              MO Center=  5.9D-11, -4.1D-10, -3.5D-11, r^2= 1.5D-02
   Bfn.  Coefficient  Atom+Function         Bfn.  Coefficient  Atom+Function  
  ----- ------------  ---------------      ----- ------------  ---------------
     1     -0.994157  1 O  s          

 Vector    2  Occ=9.243723D-01  E=-3.528400D-01
              MO Center= -2.9D-11,  7.4D-12, -3.0D-11, r^2= 4.0D-01
   Bfn.  Coefficient  Atom+Function         Bfn.  Coefficient  Atom+Function  
  ----- ------------  ---------------      ----- ------------  ---------------
     2     -0.637661  1 O  s                  6     -0.422556  1 O  s          
     1      0.236983  1 O  s          

 Vector    3  Occ=6.743092D-01  E=-3.524414D-01
              MO Center= -1.4D-10,  3.2D-10, -1.2D-10, r^2= 4.5D-01
   Bfn.  Coefficient  Atom+Function         Bfn.  Coefficient  Atom+Function  
  ----- ------------  ---------------      ----- ------------  ---------------
     4      0.660298  1 O  py                 3     -0.315540  1 O  px         
     8      0.306453  1 O  py                 5     -0.243094  1 O  pz         
     7     -0.146510  1 O  px                 9     -0.113658  1 O  pz         

 Vector    4  Occ=6.746609D-01  E=-2.683930D-01
              MO Center=  8.6D-11, -8.0D-13, -2.2D-10, r^2= 4.5D-01
   Bfn.  Coefficient  Atom+Function         Bfn.  Coefficient  Atom+Function  
  ----- ------------  ---------------      ----- ------------  ---------------
     3     -0.698857  1 O  px                 7     -0.326869  1 O  px         
     4     -0.320447  1 O  py                 8     -0.149928  1 O  py         
     5      0.036719  1 O  pz         

 Vector    5  Occ=6.743317D-01  E=-1.364674D-01
              MO Center= -1.1D-10,  8.1D-11,  1.5D-10, r^2= 4.5D-01
   Bfn.  Coefficient  Atom+Function         Bfn.  Coefficient  Atom+Function  
  ----- ------------  ---------------      ----- ------------  ---------------
     5     -0.730407  1 O  pz                 9     -0.339868  1 O  pz         
     4     -0.236177  1 O  py                 8     -0.109637  1 O  py         
     3      0.070063  1 O  px                 7      0.032319  1 O  px         

 Vector    6  Occ=2.968492D-01  E= 2.208790D-01
              MO Center=  1.6D-11,  2.9D-12,  4.7D-11, r^2= 1.4D+00
   Bfn.  Coefficient  Atom+Function         Bfn.  Coefficient  Atom+Function  
  ----- ------------  ---------------      ----- ------------  ---------------
     6      2.224376  1 O  s                  2     -1.305221  1 O  s          
    10     -0.399807  1 O  dxx               13     -0.399208  1 O  dyy        
    15     -0.397055  1 O  dzz        

 Vector    7  Occ=2.517858D-01  E= 2.835682D-01
              MO Center= -5.6D-11, -2.2D-11,  1.3D-11, r^2= 1.3D+00
   Bfn.  Coefficient  Atom+Function         Bfn.  Coefficient  Atom+Function  
  ----- ------------  ---------------      ----- ------------  ---------------
     8     -0.974976  1 O  py                 4      0.763650  1 O  py         
     7      0.461241  1 O  px                 3     -0.361264  1 O  px         
     9     -0.211219  1 O  pz                 5      0.165551  1 O  pz         

 Vector    8  Occ=2.519101D-01  E= 2.919405D-01
              MO Center=  4.0D-10, -8.2D-10,  9.7D-10, r^2= 1.3D+00
   Bfn.  Coefficient  Atom+Function         Bfn.  Coefficient  Atom+Function  
  ----- ------------  ---------------      ----- ------------  ---------------
     7      0.992636  1 O  px                 3     -0.779324  1 O  px         
     8      0.470208  1 O  py                 4     -0.369141  1 O  py         

 Vector    9  Occ=2.517808D-01  E= 3.935288D-01
              MO Center=  8.5D-11,  7.7D-11, -2.8D-11, r^2= 1.3D+00
   Bfn.  Coefficient  Atom+Function         Bfn.  Coefficient  Atom+Function  
  ----- ------------  ---------------      ----- ------------  ---------------
     9     -1.078287  1 O  pz                 5      0.845397  1 O  pz         
     8      0.189633  1 O  py                 4     -0.148866  1 O  py         
     7     -0.092867  1 O  px                 3      0.072889  1 O  px         

 Vector   10  Occ=1.990095D-13  E= 4.695650D-01
              MO Center= -3.9D-10,  3.6D-10,  1.5D-10, r^2= 6.1D-01
   Bfn.  Coefficient  Atom+Function         Bfn.  Coefficient  Atom+Function  
  ----- ------------  ---------------      ----- ------------  ---------------
    10      0.809368  1 O  dxx               13     -0.723916  1 O  dyy        
    12     -0.612537  1 O  dxz               11     -0.446516  1 O  dxy        
    14      0.239132  1 O  dyz               15     -0.070982  1 O  dzz        

 Vector   11  Occ=2.656800D-13  E= 4.695687D-01
              MO Center= -1.4D-11, -1.1D-11, -1.3D-11, r^2= 6.1D-01
   Bfn.  Coefficient  Atom+Function         Bfn.  Coefficient  Atom+Function  
  ----- ------------  ---------------      ----- ------------  ---------------
    15     -0.901215  1 O  dzz               14     -0.617048  1 O  dyz        
    10      0.529228  1 O  dxx               13      0.359790  1 O  dyy        
    12      0.311949  1 O  dxz               11      0.280302  1 O  dxy        

 Vector   12  Occ=4.758719D-15  E= 4.695710D-01
              MO Center=  1.5D-10,  2.5D-10,  3.1D-11, r^2= 6.1D-01
   Bfn.  Coefficient  Atom+Function         Bfn.  Coefficient  Atom+Function  
  ----- ------------  ---------------      ----- ------------  ---------------
    11     -1.176855  1 O  dxy               14     -1.143622  1 O  dyz        
    12      0.439040  1 O  dxz               15      0.218577  1 O  dzz        
    13     -0.090597  1 O  dyy               10     -0.051085  1 O  dxx        
     6     -0.043254  1 O  s          

 Vector   13  Occ=1.349112D-13  E= 4.702268D-01
              MO Center=  2.1D-10,  6.0D-11, -1.1D-10, r^2= 6.1D-01
   Bfn.  Coefficient  Atom+Function         Bfn.  Coefficient  Atom+Function  
  ----- ------------  ---------------      ----- ------------  ---------------
    11      1.152278  1 O  dxy               14     -0.971616  1 O  dyz        
    13     -0.429451  1 O  dyy               15      0.410303  1 O  dzz        
    10      0.116389  1 O  dxx                6     -0.054501  1 O  s          

 Vector   14  Occ=3.794410D-13  E= 4.706448D-01
              MO Center= -2.8D-10,  1.0D-10, -8.1D-10, r^2= 6.1D-01
   Bfn.  Coefficient  Atom+Function         Bfn.  Coefficient  Atom+Function  
  ----- ------------  ---------------      ----- ------------  ---------------
    12      1.527931  1 O  dxz               14      0.555317  1 O  dyz        
    13     -0.326772  1 O  dyy               10      0.239251  1 O  dxx        
    15      0.099418  1 O  dzz               11      0.096478  1 O  dxy        

 Vector   15  Occ=6.067559D-14  E= 1.942856D+00
              MO Center=  5.0D-12,  2.9D-12, -3.4D-12, r^2= 8.8D-01
   Bfn.  Coefficient  Atom+Function         Bfn.  Coefficient  Atom+Function  
  ----- ------------  ---------------      ----- ------------  ---------------
     6      2.233231  1 O  s                 13     -1.336188  1 O  dyy        
    10     -1.315023  1 O  dxx               15     -1.302613  1 O  dzz        
     2      0.638827  1 O  s                  1     -0.396254  1 O  s          
    14     -0.042173  1 O  dyz        


                     WFN1 Final Beta Natural Orbital Analysis
                     ----------------------------------------

 Vector    1  Occ=1.000000D+00  E=-1.935736D+01
              MO Center=  2.1D-11,  6.2D-12,  1.0D-11, r^2= 1.5D-02
   Bfn.  Coefficient  Atom+Function         Bfn.  Coefficient  Atom+Function  
  ----- ------------  ---------------      ----- ------------  ---------------
     1     -0.995144  1 O  s          

 Vector    2  Occ=6.464716D-01  E=-8.925830D-01
              MO Center= -1.2D-11, -9.2D-12, -2.8D-11, r^2= 4.4D-01
   Bfn.  Coefficient  Atom+Function         Bfn.  Coefficient  Atom+Function  
  ----- ------------  ---------------      ----- ------------  ---------------
     2     -0.565681  1 O  s                  6     -0.492851  1 O  s          
     1      0.229226  1 O  s          

 Vector    3  Occ=4.089330D-01  E=-8.186218D-01
              MO Center= -2.3D-11, -2.8D-11,  5.0D-11, r^2= 5.1D-01
   Bfn.  Coefficient  Atom+Function         Bfn.  Coefficient  Atom+Function  
  ----- ------------  ---------------      ----- ------------  ---------------
     4      0.607816  1 O  py                 8      0.364022  1 O  py         
     3     -0.291598  1 O  px                 5     -0.236413  1 O  pz         
     7     -0.174645  1 O  px                 9     -0.141574  1 O  pz         

 Vector    4  Occ=4.086618D-01  E=-3.655109D-01
              MO Center= -9.5D-11,  1.5D-11, -7.0D-11, r^2= 5.2D-01
   Bfn.  Coefficient  Atom+Function         Bfn.  Coefficient  Atom+Function  
  ----- ------------  ---------------      ----- ------------  ---------------
     3     -0.641180  1 O  px                 7     -0.397148  1 O  px         
     4     -0.294011  1 O  py                 8     -0.182068  1 O  py         
     5      0.034948  1 O  pz         

 Vector    5  Occ=4.089258D-01  E=-2.707590D-01
              MO Center=  4.6D-11, -1.6D-11,  2.2D-11, r^2= 5.1D-01
   Bfn.  Coefficient  Atom+Function         Bfn.  Coefficient  Atom+Function  
  ----- ------------  ---------------      ----- ------------  ---------------
     5     -0.673272  1 O  pz                 9     -0.403120  1 O  pz         
     4     -0.229070  1 O  py                 8     -0.137222  1 O  py         
     3      0.068335  1 O  px                 7      0.040810  1 O  px         

 Vector    6  Occ=5.419316D-02  E=-2.660763D-01
              MO Center=  6.7D-12,  6.3D-13,  1.4D-11, r^2= 1.4D+00
   Bfn.  Coefficient  Atom+Function         Bfn.  Coefficient  Atom+Function  
  ----- ------------  ---------------      ----- ------------  ---------------
     6      2.235254  1 O  s                  2     -1.324016  1 O  s          
    10     -0.418572  1 O  dxx               13     -0.418492  1 O  dyy        
    15     -0.418522  1 O  dzz        

 Vector    7  Occ=2.516835D-02  E=-2.596837D-01
              MO Center=  1.7D-09,  4.0D-10, -1.2D-09, r^2= 1.2D+00
   Bfn.  Coefficient  Atom+Function         Bfn.  Coefficient  Atom+Function  
  ----- ------------  ---------------      ----- ------------  ---------------
     8     -0.954024  1 O  py                 4      0.807225  1 O  py         
     7      0.453009  1 O  px                 3     -0.383586  1 O  px         
     9     -0.193943  1 O  pz                 5      0.164110  1 O  pz         

 Vector    8  Occ=2.249293D-02  E=-2.085383D-01
              MO Center=  1.2D-09, -4.3D-09,  1.7D-09, r^2= 1.2D+00
   Bfn.  Coefficient  Atom+Function         Bfn.  Coefficient  Atom+Function  
  ----- ------------  ---------------      ----- ------------  ---------------
     7      0.966202  1 O  px                 3     -0.826360  1 O  px         
     8      0.459525  1 O  py                 4     -0.392892  1 O  py         

 Vector    9  Occ=2.515327D-02  E=-1.881890D-01
              MO Center=  1.3D-09, -1.7D-09, -8.6D-10, r^2= 1.2D+00
   Bfn.  Coefficient  Atom+Function         Bfn.  Coefficient  Atom+Function  
  ----- ------------  ---------------      ----- ------------  ---------------
     9     -1.056126  1 O  pz                 5      0.893700  1 O  pz         
     8      0.173871  1 O  py                 4     -0.147359  1 O  py         
     7     -0.085959  1 O  px                 3      0.072291  1 O  px         

 Vector   10  Occ=5.830627D-14  E= 5.507898D-01
              MO Center= -6.8D-10, -4.4D-10,  9.8D-11, r^2= 6.1D-01
   Bfn.  Coefficient  Atom+Function         Bfn.  Coefficient  Atom+Function  
  ----- ------------  ---------------      ----- ------------  ---------------
    11      1.010252  1 O  dxy               10      0.706270  1 O  dxx        
    13     -0.545302  1 O  dyy               14      0.515108  1 O  dyz        
    12     -0.241563  1 O  dxz               15     -0.178133  1 O  dzz        

 Vector   11  Occ=1.017309D-15  E= 5.508407D-01
              MO Center= -1.3D-09,  8.0D-10,  5.7D-10, r^2= 6.1D-01
   Bfn.  Coefficient  Atom+Function         Bfn.  Coefficient  Atom+Function  
  ----- ------------  ---------------      ----- ------------  ---------------
    15     -0.859798  1 O  dzz               11     -0.761412  1 O  dxy        
    10      0.601973  1 O  dxx               13      0.279257  1 O  dyy        
    12      0.242929  1 O  dxz               14     -0.047275  1 O  dyz        

 Vector   12  Occ=3.987642D-16  E= 5.508946D-01
              MO Center= -2.9D-10,  1.3D-09,  3.2D-11, r^2= 6.1D-01
   Bfn.  Coefficient  Atom+Function         Bfn.  Coefficient  Atom+Function  
  ----- ------------  ---------------      ----- ------------  ---------------
    14     -1.329952  1 O  dyz               13     -0.585934  1 O  dyy        
    11     -0.381526  1 O  dxy               10      0.361379  1 O  dxx        
    15      0.260149  1 O  dzz               12     -0.055522  1 O  dxz        

 Vector   13  Occ=9.963657D-14  E= 5.509729D-01
              MO Center= -4.9D-10,  3.4D-10, -2.8D-09, r^2= 6.1D-01
   Bfn.  Coefficient  Atom+Function         Bfn.  Coefficient  Atom+Function  
  ----- ------------  ---------------      ----- ------------  ---------------
    12     -1.517093  1 O  dxz               14     -0.471807  1 O  dyz        
    13      0.366341  1 O  dyy               11      0.275093  1 O  dxy        
    15     -0.249684  1 O  dzz               10     -0.064567  1 O  dxx        
     6     -0.028860  1 O  s          

 Vector   14  Occ=2.540848D-21  E= 5.931953D-01
              MO Center= -9.0D-10,  3.6D-09,  2.0D-09, r^2= 6.2D-01
   Bfn.  Coefficient  Atom+Function         Bfn.  Coefficient  Atom+Function  
  ----- ------------  ---------------      ----- ------------  ---------------
    11      1.068558  1 O  dxy               14     -0.851782  1 O  dyz        
    12      0.746090  1 O  dxz               15     -0.510617  1 O  dzz        
     6      0.373059  1 O  s                 10     -0.321144  1 O  dxx        
    13      0.168206  1 O  dyy                2      0.113352  1 O  s          
     1     -0.067535  1 O  s          

 Vector   15  Occ=7.356621D-20  E= 1.999698D+00
              MO Center= -4.9D-10,  5.9D-11,  3.3D-10, r^2= 8.5D-01
   Bfn.  Coefficient  Atom+Function         Bfn.  Coefficient  Atom+Function  
  ----- ------------  ---------------      ----- ------------  ---------------
     6      2.176892  1 O  s                 13     -1.356961  1 O  dyy        
    10     -1.274144  1 O  dxx               15     -1.249283  1 O  dzz        
     2      0.657938  1 O  s                  1     -0.392902  1 O  s          
    11     -0.191228  1 O  dxy               12     -0.146046  1 O  dxz        
    14      0.124590  1 O  dyz        


 Task  times  cpu:     1180.2s     wall:     1267.6s


                                NWChem Input Module
                                -------------------


 Summary of allocated global arrays
-----------------------------------
  No active global arrays



                         GA Statistics for process    0
                         ------------------------------

       create   destroy   get      put      acc     scatter   gather  read&inc
calls:   90       90     1.41e+08 2.14e+05 8.09e+07    0        0        8     
number of processes/call 1.00e+00 1.00e+00 1.00e+00 0.00e+00 0.00e+00
bytes total:             2.05e+11 3.74e+08 1.46e+11 0.00e+00 0.00e+00 6.40e+01
bytes remote:            0.00e+00 0.00e+00 0.00e+00 0.00e+00 0.00e+00 0.00e+00
Max memory consumed for GA by this process: 61200 bytes

MA_summarize_allocated_blocks: starting scan ...
MA_summarize_allocated_blocks: scan completed: 0 heap blocks, 0 stack blocks
MA usage statistics:

	allocation statistics:
					      heap	     stack
					      ----	     -----
	current number of blocks	         0	         0
	maximum number of blocks	        18	        17
	current total bytes		         0	         0
	maximum total bytes		   3210040	  22508664
	maximum total K-bytes		      3211	     22509
	maximum total M-bytes		         4	        23


                                     CITATION
                                     --------
                Please cite the following reference when publishing
                           results obtained with NWChem:

                 M. Valiev, E.J. Bylaska, N. Govind, K. Kowalski,
              T.P. Straatsma, H.J.J. van Dam, D. Wang, J. Nieplocha,
                        E. Apra, T.L. Windus, W.A. de Jong
                 "NWChem: a comprehensive and scalable open-source
                  solution for large scale molecular simulations"
                      Comput. Phys. Commun. 181, 1477 (2010)
                           doi:10.1016/j.cpc.2010.04.018

                                      AUTHORS
                                      -------
          E. Apra, E. J. Bylaska, W. A. de Jong, N. Govind, K. Kowalski,
       T. P. Straatsma, M. Valiev, H. J. J. van Dam, D. Wang, T. L. Windus,
        J. Hammond, J. Autschbach, K. Bhaskaran-Nair, J. Brabec, K. Lopata,
    S. A. Fischer, S. Krishnamoorthy, M. Jacquelin, W. Ma, M. Klemm, O. Villa,
      Y. Chen, V. Anisimov, F. Aquino, S. Hirata, M. T. Hackler, V. Konjkov,
      T. Risthaus, M. Malagoli, A. Marenich, A. Otero-de-la-Roza, J. Mullin,
        P. Nichols, R. Peverati, J. Pittner, Y. Zhao, P.-D. Fan, A. Fonari,
       M. Williamson, R. J. Harrison, J. R. Rehr, M. Dupuis, D. Silverstein,
    D. M. A. Smith, J. Nieplocha, V. Tipparaju, M. Krishnan, B. E. Van Kuiken,
        A. Vazquez-Mayagoitia, L. Jensen, M. Swart, Q. Wu, T. Van Voorhis,
     A. A. Auer, M. Nooijen, L. D. Crosby, E. Brown, G. Cisneros, G. I. Fann,
   H. Fruchtl, J. Garza, K. Hirao, R. A. Kendall, J. A. Nichols, K. Tsemekhman,
    K. Wolinski, J. Anchell, D. E. Bernholdt, P. Borowski, T. Clark, D. Clerc,
   H. Dachsel, M. J. O. Deegan, K. Dyall, D. Elwood, E. Glendening, M. Gutowski,
   A. C. Hess, J. Jaffe, B. G. Johnson, J. Ju, R. Kobayashi, R. Kutteh, Z. Lin,
   R. Littlefield, X. Long, B. Meng, T. Nakajima, S. Niu, L. Pollack, M. Rosing,
   K. Glaesemann, G. Sandrone, M. Stave, H. Taylor, G. Thomas, J. H. van Lenthe,
                               A. T. Wong, Z. Zhang.

 Total times  cpu:     1266.9s     wall:     1360.8s
