 argument  1 = wfn1_o.nw



============================== echo of input deck ==============================
echo
start wfn1_o_dat

geometry
  o      0.00000000     0.00000000     0.00000000
end
basis
  * library 6-31g*
end

set wfn1:nopen  2
set wfn1:t_bath 0.0
set wfn1:maxit  600
set wfn1:print_error T

task wfn1 energy

set wfn1:nopen  2
set wfn1:t_initial 0.5
set wfn1:t_bath    0.3
set wfn1:maxit  5000
set wfn1:print_error T

task wfn1 energy
================================================================================


                                         
                                         


              Northwest Computational Chemistry Package (NWChem) 6.8
              ------------------------------------------------------


                    Environmental Molecular Sciences Laboratory
                       Pacific Northwest National Laboratory
                                Richland, WA 99352

                              Copyright (c) 1994-2015
                       Pacific Northwest National Laboratory
                            Battelle Memorial Institute

             NWChem is an open-source computational chemistry package
                        distributed under the terms of the
                      Educational Community License (ECL) 2.0
             A copy of the license is included with this distribution
                              in the LICENSE.TXT file

                                  ACKNOWLEDGMENT
                                  --------------

            This software and its documentation were developed at the
            EMSL at Pacific Northwest National Laboratory, a multiprogram
            national laboratory, operated for the U.S. Department of Energy
            by Battelle under Contract Number DE-AC05-76RL01830. Support
            for this work was provided by the Department of Energy Office
            of Biological and Environmental Research, Office of Basic
            Energy Sciences, and the Office of Advanced Scientific Computing.


           Job information
           ---------------

    hostname        = erato
    program         = ../../../bin/LINUX64/nwchem
    date            = Mon May  7 22:01:08 2018

    compiled        = Sun_May_06_22:49:06_2018
    source          = /home/hvandam/nwchem-1-wfn1
    nwchem branch   = Development
    nwchem revision = nwchem_on_git-51-gcccac83fc2a4226c5c513281d68ab773edcb0a0d
    ga revision     = nwchem_on_git-43-g1da910a
    use scalapack   = F
    input           = wfn1_o.nw
    prefix          = wfn1_o_dat.
    data base       = ./wfn1_o_dat.db
    status          = startup
    nproc           =        1
    time left       =     -1s



           Memory information
           ------------------

    heap     =   13107198 doubles =    100.0 Mbytes
    stack    =   13107195 doubles =    100.0 Mbytes
    global   =   26214400 doubles =    200.0 Mbytes (distinct from heap & stack)
    total    =   52428793 doubles =    400.0 Mbytes
    verify   = yes
    hardfail = no 


           Directory information
           ---------------------

  0 permanent = .
  0 scratch   = .




                                NWChem Input Module
                                -------------------



 Scaling coordinates for geometry "geometry" by  1.889725989
 (inverse scale =  0.529177249)



                             Geometry "geometry" -> ""
                             -------------------------

 Output coordinates in angstroms (scale by  1.889725989 to convert to a.u.)

  No.       Tag          Charge          X              Y              Z
 ---- ---------------- ---------- -------------- -------------- --------------
    1 o                    8.0000     0.00000000     0.00000000     0.00000000

      Atomic Mass 
      ----------- 

      o                 15.994910


 Effective nuclear repulsion energy (a.u.)       0.0000000000

            Nuclear Dipole moment (a.u.) 
            ----------------------------
        X                 Y               Z
 ---------------- ---------------- ----------------
     0.0000000000     0.0000000000     0.0000000000


            XYZ format geometry
            -------------------
     1
 geometry
 o                     0.00000000     0.00000000     0.00000000



 Summary of "ao basis" -> "" (cartesian)
 ------------------------------------------------------------------------------
       Tag                 Description            Shells   Functions and Types
 ---------------- ------------------------------  ------  ---------------------
 *                           6-31g*                   on all atoms 



                                NWChem WFN1 Module
                                ------------------


                      Basis "ao basis" -> "ao basis" (cartesian)
                      -----
  o (Oxygen)
  ----------
            Exponent  Coefficients 
       -------------- ---------------------------------------------------------
  1 S  5.48467170E+03  0.001831
  1 S  8.25234950E+02  0.013950
  1 S  1.88046960E+02  0.068445
  1 S  5.29645000E+01  0.232714
  1 S  1.68975700E+01  0.470193
  1 S  5.79963530E+00  0.358521

  2 S  1.55396160E+01 -0.110778
  2 S  3.59993360E+00 -0.148026
  2 S  1.01376180E+00  1.130767

  3 P  1.55396160E+01  0.070874
  3 P  3.59993360E+00  0.339753
  3 P  1.01376180E+00  0.727159

  4 S  2.70005800E-01  1.000000

  5 P  2.70005800E-01  1.000000

  6 D  8.00000000E-01  1.000000



 Summary of "ao basis" -> "ao basis" (cartesian)
 ------------------------------------------------------------------------------
       Tag                 Description            Shells   Functions and Types
 ---------------- ------------------------------  ------  ---------------------
 o                           6-31g*                  6       15   3s2p1d



      Superposition of Atomic Density Guess
      -------------------------------------

 Sum of atomic energies:         -74.75435223

      Non-variational initial energy
      ------------------------------

 Total energy =     -74.250355
 1-e energy   =    -103.191043
 2-e energy   =      28.940688
 HOMO         =      -0.368773
 LUMO         =      -0.368773

 iteration              energy           error          err Na          err Nb          err Ca          err Cb
 ---------              ------           -----          ------          ------          ------          ------
         1        -74.77688078        0.803945        0.150623        0.653323        0.000000        0.000000
         2        -74.78021544        0.624135        0.113973        0.510162        0.000000        0.000000
         3        -74.78152534       31.351560        5.667513       25.684047        0.000000        0.000000
         4        -74.78220945       29.753693        5.461779       24.291914        0.000000        0.000000
         5        -74.78254971      266.276780       76.734478      189.542302        0.000000        0.000000
         6        -74.78319665      156.297324      103.012404       53.284920        0.000000        0.000000
         7        -74.78335262      328.458677      153.681278      174.777399        0.000000        0.000000
         8        -74.78352068      283.530185      138.951727      144.578458        0.000000        0.000000
         9        -74.78357724       39.521955       18.598257       20.923699        0.000000        0.000000
        10        -74.78365643      224.798362      105.770441      119.027921        0.000000        0.000000
        11        -74.78353961      110.594091       21.855789       88.738302        0.000000        0.000000
        12        -74.78360186      121.607705       28.862735       92.744970        0.000000        0.000000
        13        -74.78364695      128.614067       35.929700       92.684367        0.000000        0.000000
        14        -74.78349110       95.893531       30.561674       65.331857        0.000000        0.000000
        15        -74.78308324      260.447673       72.256916      188.190757        0.000000        0.000000
        16        -74.78325539      196.326765       87.214317      109.112448        0.000000        0.000000
        17        -74.78335558      161.929903       47.266131      114.663772        0.000000        0.000000
        18        -74.78298623      188.596147      160.202833       28.393314        0.000000        0.000000
        19        -74.78321644       48.712730        5.156463       43.556267        0.000000        0.000000
        20        -74.78334784       47.604559        5.463963       42.140596        0.000000        0.000000
        21        -74.78345367       90.202514       11.768700       78.433814        0.000000        0.000000
        22        -74.78296155      229.986919      132.172811       97.814108        0.000000        0.000000
        23        -74.78369278      154.872841        0.285450      154.587391        0.000000        0.000000
        24        -74.78372037        7.789231        2.629348        5.159883        0.000000        0.000000
        25        -74.78386164      371.196411      184.599166      186.597245        0.000000        0.000000
        26        -74.78387116        0.358490        0.016728        0.341762        0.000000        0.000000
        27        -74.78391668      127.730029        7.522340      120.207689        0.000000        0.000000
        28        -74.78392610      125.517165       11.188256      114.328909        0.000000        0.000000
        29        -74.78392738       80.377485        9.913191       70.464294        0.000000        0.000000
        30        -74.78392821      131.008009       20.257571      110.750438        0.000000        0.000000
        31        -74.78392820       96.417893       15.171928       81.245965        0.000000        0.000000
        32        -74.78392960      220.297467      136.713160       83.584307        0.000000        0.000000
        33        -74.78392728      182.486910      181.835506        0.651404        0.000000        0.000000
        34        -74.78393018        8.825170        3.358267        5.466903        0.000000        0.000000
        35        -74.78393172      284.466832       99.456879      185.009954        0.000000        0.000000
        36        -74.78393225      248.223669      144.246218      103.977451        0.000000        0.000000
        37        -74.78393164      249.658339      176.538590       73.119749        0.000000        0.000000
        38        -74.78393201      210.760733       82.106934      128.653799        0.000000        0.000000
        39        -74.78393220       47.044981       21.099720       25.945261        0.000000        0.000000
        40        -74.78393246      181.476353       81.764133       99.712220        0.000000        0.000000
        41        -74.78393259      133.251631       39.797502       93.454129        0.000000        0.000000
        42        -74.78393271      155.355133       52.701185      102.653948        0.000000        0.000000
        43        -74.78393276       52.364716        0.000461       52.364255        0.000000        0.000000
        44        -74.78393289      117.836708        0.006439      117.830269        0.000000        0.000000
        45        -74.78393297       91.250487        1.853203       89.397284        0.000000        0.000000
        46        -74.78393306       68.171840       15.045565       53.126275        0.000000        0.000000
        47        -74.78393314      218.889620      129.291729       89.597890        0.000000        0.000000
        48        -74.78393284      150.187320      130.562733       19.624587        0.000000        0.000000
        49        -74.78393321      213.326329       44.830125      168.496204        0.000000        0.000000
        50        -74.78393352      293.231609      145.439599      147.792010        0.000000        0.000000
        51        -74.78393353      103.703856       49.216399       54.487458        0.000000        0.000000
        52        -74.78393354      196.756306       92.725080      104.031226        0.000000        0.000000
        53        -74.78393355       51.819305       43.431223        8.388082        0.000000        0.000000
        54        -74.78393356      237.928460      176.820785       61.107675        0.000000        0.000000
        55        -74.78393356       72.064526       35.322924       36.741602        0.000000        0.000000
        56        -74.78393356       35.333533       35.322924        0.010609        0.000000        0.000000
        57        -74.78393357      168.634748      168.425660        0.209089        0.000000        0.000000
        58        -74.78393357      155.923210      153.862408        2.060802        0.000000        0.000000
        59        -74.78393358        3.164055        0.265115        2.898940        0.000000        0.000000
        60        -74.78393359      137.456379       14.338695      123.117683        0.000000        0.000000
        61        -74.78393359      102.063019       15.136711       86.926308        0.000000        0.000000
        62        -74.78393359      271.996452       86.252010      185.744442        0.000000        0.000000
        63        -74.78393359       88.687538       86.252010        2.435529        0.000000        0.000000
        64        -74.78393359      106.395067      101.984965        4.410102        0.000000        0.000000
        65        -74.78393359        7.801375        3.391273        4.410102        0.000000        0.000000
        66        -74.78393359      102.288269       63.593772       38.694497        0.000000        0.000000
        67        -74.78393359      114.997623       76.303126       38.694497        0.000000        0.000000
        68        -74.78393359      203.810210      165.115713       38.694497        0.000000        0.000000
        69        -74.78393359       51.171669       12.477172       38.694497        0.000000        0.000000
        70        -74.78393359       12.480878       12.477172        0.003706        0.000000        0.000000
        71        -74.78393359       98.695177       98.661023        0.034155        0.000000        0.000000
        72        -74.78393359       26.146331       26.112176        0.034155        0.000000        0.000000
        73        -74.78393359        0.280514        0.246359        0.034155        0.000000        0.000000
        74        -74.78393359        1.540135        1.358171        0.181964        0.000000        0.000000
        75        -74.78393359        0.814975        0.633011        0.181964        0.000000        0.000000
        76        -74.78393359        0.378120        0.196155        0.181964        0.000000        0.000000
        77        -74.78393359        0.218757        0.036793        0.181964        0.000000        0.000000
        78        -74.78393359        0.076386        0.036793        0.039593        0.000000        0.000000
        79        -74.78393360        0.469969        0.219286        0.250683        0.000000        0.000000
        80        -74.78393360        3.531380        1.630281        1.901099        0.000000        0.000000
        81        -74.78393360        1.630290        1.630281        0.000009        0.000000        0.000000
        82        -74.78393360       10.051017       10.050958        0.000059        0.000000        0.000000
        83        -74.78393360        0.000904        0.000845        0.000059        0.000000        0.000000
        84        -74.78393360        0.001480        0.001160        0.000319        0.000000        0.000000
        85        -74.78393360        0.007088        0.004779        0.002309        0.000000        0.000000
        86        -74.78393360        0.034565        0.022684        0.011881        0.000000        0.000000
        87        -74.78393360        0.227088        0.148068        0.079019        0.000000        0.000000
        88        -74.78393360        1.112287        0.723035        0.389252        0.000000        0.000000
        89        -74.78393360        7.897774        5.116389        2.781385        0.000000        0.000000
        90        -74.78393360        5.213298        5.116389        0.096909        0.000000        0.000000
        91        -74.78393360        2.618889        2.521980        0.096909        0.000000        0.000000
        92        -74.78393360        0.217145        0.120236        0.096909        0.000000        0.000000
        93        -74.78393360        0.728170        0.403255        0.324914        0.000000        0.000000
        94        -74.78393360        5.695169        3.158355        2.536814        0.000000        0.000000
        95        -74.78393360        3.158394        3.158355        0.000038        0.000000        0.000000
        96        -74.78393360        1.332398        1.332359        0.000038        0.000000        0.000000
        97        -74.78393360        0.001657        0.001618        0.000038        0.000000        0.000000
        98        -74.78393360        0.005444        0.005322        0.000122        0.000000        0.000000
        99        -74.78393360        0.046686        0.045692        0.000994        0.000000        0.000000
       100        -74.78393360        0.156419        0.153313        0.003106        0.000000        0.000000
       101        -74.78393360        1.332264        1.307328        0.024935        0.000000        0.000000
       102        -74.78393360        0.361830        0.336895        0.024935        0.000000        0.000000
       103        -74.78393360        1.325734        1.240592        0.085143        0.000000        0.000000
       104        -74.78393360       10.023743        9.412337        0.611406        0.000000        0.000000
       105        -74.78393360        1.128581        0.517175        0.611406        0.000000        0.000000
       106        -74.78393360        0.518770        0.517175        0.001595        0.000000        0.000000
       107        -74.78393360        1.596573        1.591134        0.005439        0.000000        0.000000
       108        -74.78393360        0.433768        0.428329        0.005439        0.000000        0.000000
       109        -74.78393360        3.559986        3.514493        0.045493        0.000000        0.000000
       110        -74.78393360        0.323990        0.278497        0.045493        0.000000        0.000000
       111        -74.78393360        1.340173        1.151402        0.188770        0.000000        0.000000
       112        -74.78393360        9.616447        8.245875        1.370572        0.000000        0.000000
       113        -74.78393360        1.462313        0.091741        1.370572        0.000000        0.000000
       114        -74.78393360        3.877938        0.240695        3.637244        0.000000        0.000000
       115        -74.78393360       57.321648        3.831922       53.489727        0.000000        0.000000
       116        -74.78393360        4.204850        3.831922        0.372928        0.000000        0.000000
       117        -74.78393360        0.652373        0.279445        0.372928        0.000000        0.000000
       118        -74.78393360        1.233994        0.520530        0.713464        0.000000        0.000000
       119        -74.78393360       25.247115       10.604171       14.642944        0.000000        0.000000
       120        -74.78393360       10.881670       10.604171        0.277499        0.000000        0.000000
       121        -74.78393360        5.554326        5.276827        0.277499        0.000000        0.000000
       122        -74.78393360        1.666722        1.389223        0.277499        0.000000        0.000000
       123        -74.78393360        0.279538        0.002039        0.277499        0.000000        0.000000
       124        -74.78393360        0.427046        0.003382        0.423664        0.000000        0.000000
       125        -74.78393360       11.888785        0.101363       11.787422        0.000000        0.000000
       126        -74.78393360        0.112272        0.101363        0.010909        0.000000        0.000000
       127        -74.78393360        0.159152        0.143573        0.015579        0.000000        0.000000
       128        -74.78393360        4.962206        4.471398        0.490808        0.000000        0.000000
       129        -74.78393360        3.713048        3.222240        0.490808        0.000000        0.000000
       130        -74.78393360        1.234004        0.743196        0.490808        0.000000        0.000000
       131        -74.78393360        1.528228        0.920909        0.607319        0.000000        0.000000
       132        -74.78393360       74.816280       44.742986       30.073295        0.000000        0.000000
       133        -74.78393360      109.468954       79.395659       30.073295        0.000000        0.000000
       134        -74.78393360      177.974323      147.901029       30.073295        0.000000        0.000000
       135        -74.78393360      235.318534      205.245240       30.073295        0.000000        0.000000
       136        -74.78393360      167.900241      137.826947       30.073295        0.000000        0.000000
       137        -74.78393360       58.976773       28.903478       30.073295        0.000000        0.000000
       138        -74.78393360       31.770002       28.903478        2.866524        0.000000        0.000000
       139        -74.78393360       12.762515        9.895991        2.866524        0.000000        0.000000
       140        -74.78393360        2.993315        0.126791        2.866524        0.000000        0.000000
       141        -74.78393360        0.736932        0.126791        0.610141        0.000000        0.000000
       142        -74.78393360        0.139967        0.126791        0.013176        0.000000        0.000000
       143        -74.78393360        0.359920        0.213834        0.146086        0.000000        0.000000
       144        -74.78393360        0.220744        0.074658        0.146086        0.000000        0.000000
       145        -74.78393360        0.142915        0.074658        0.068256        0.000000        0.000000
       146        -74.78393360        2.389443        0.673222        1.716221        0.000000        0.000000
       147        -74.78393360        0.710182        0.673222        0.036959        0.000000        0.000000
       148        -74.78393360        0.117634        0.080675        0.036959        0.000000        0.000000
       149        -74.78393360        0.052616        0.015656        0.036959        0.000000        0.000000
       150        -74.78393360        0.015712        0.015656        0.000055        0.000000        0.000000
       151        -74.78393360        0.000064        0.000008        0.000055        0.000000        0.000000
       152        -74.78393360        0.000031        0.000008        0.000022        0.000000        0.000000
       153        -74.78393360        0.000009        0.000008        0.000000        0.000000        0.000000
       154        -74.78393360        0.000004        0.000003        0.000000        0.000000        0.000000
       155        -74.78393360        0.000001        0.000001        0.000000        0.000000        0.000000
       156        -74.78393360        0.000000        0.000000        0.000000        0.000000        0.000000

 Reached Convergence

 WFN1                     :
 --------------------------
 Total WFN1 energy =         -74.7839335977
 1-Electron energy =        -103.2157702122
 2-Electron energy =          28.4318366145
 Entropy energy    =           0.0000000000
 Nuclear energy    =           0.0000000000

 conventional Hartree-Fock:
 --------------------------
 Total SCF energy  =         -74.7839335977
 2-Electron energy =          28.4318366145

                WFN1 Final Natural orbital energies and occupations
                ---------------------------------------------------

              Alpha       Beta            Alpha       Beta  
            --------    --------        --------    --------
       1    -20.7153     -0.5153          1.0000      1.0000
       2     -1.4082     -1.0707          1.0000      1.0000
       3     -0.6040    -20.6380          1.0000      1.0000
       4     -0.7003      0.0000          1.0000      0.0000
       5     -0.7003      0.0000          1.0000      0.0000
       6      0.0000      0.0000          0.0000      0.0000
       7      0.0000      0.0000          0.0000      0.0000
       8      0.0000      0.0000          0.0000      0.0000
       9      0.0000      0.0000          0.0000      0.0000
      10      0.0000      0.0000          0.0000      0.0000
      11      0.0000      0.0000          0.0000      0.0000
      12      0.0000      0.0000          0.0000      0.0000
      13      0.0000      0.0000          0.0000      0.0000
      14      0.0000      0.0000          0.0000      0.0000
      15      0.0000      0.0000          0.0000      0.0000

             WFN1 Final Correlation function energies and occupations
             --------------------------------------------------------

              Alpha       Beta            Alpha       Beta  
            --------    --------        --------    --------
       1    -20.7153    -20.6380          1.0000      1.0000
       2     -1.4082     -1.0707          1.0000      1.0000
       3     -0.7003     -0.5153          1.0000      1.0000
       4     -0.7003      1.0669          1.0000      0.0000
       5     -0.6040      1.1410          1.0000      0.0000
       6      0.8913      1.1992          0.0000      0.0000
       7      1.0362      1.2999          0.0000      0.0000
       8      1.0507      1.3542          0.0000      0.0000
       9      1.0815      1.4055          0.0000      0.0000
      10      1.9698      1.5076          0.0000      0.0000
      11      1.9758      1.6084          0.0000      0.0000
      12      1.9804      1.6456          0.0000      0.0000
      13      1.9813      1.7142          0.0000      0.0000
      14      1.9915      1.9714          0.0000      0.0000
      15      3.5020      3.1210          0.0000      0.0000

                WFN1 Final alpha-alpha 2-matrix occupation numbers
                --------------------------------------------------


 global array: g_momo1[1:15,1:15],  handle: -994 

            1           2           3           4           5           6  
       ----------- ----------- ----------- ----------- ----------- -----------
   1       0.00000     1.00000     1.00000     1.00000     1.00000     0.00000
   2       1.00000     0.00000     1.00000     1.00000     1.00000     0.00000
   3       1.00000     1.00000     0.00000     1.00000     1.00000     0.00000
   4       1.00000     1.00000     1.00000     0.00000     1.00000     0.00000
   5       1.00000     1.00000     1.00000     1.00000     0.00000     0.00000
   6       0.00000     0.00000     0.00000     0.00000     0.00000     0.00000
   7       0.00000     0.00000     0.00000     0.00000     0.00000     0.00000
   8       0.00000     0.00000     0.00000     0.00000     0.00000     0.00000
   9       0.00000     0.00000     0.00000     0.00000     0.00000     0.00000
  10       0.00000     0.00000     0.00000     0.00000     0.00000     0.00000
  11       0.00000     0.00000     0.00000     0.00000     0.00000     0.00000
  12       0.00000     0.00000     0.00000     0.00000     0.00000     0.00000
  13       0.00000     0.00000     0.00000     0.00000     0.00000     0.00000
  14       0.00000     0.00000     0.00000     0.00000     0.00000     0.00000
  15       0.00000     0.00000     0.00000     0.00000     0.00000     0.00000

            7           8           9          10          11          12  
       ----------- ----------- ----------- ----------- ----------- -----------
   1       0.00000     0.00000     0.00000     0.00000     0.00000     0.00000
   2       0.00000     0.00000     0.00000     0.00000     0.00000     0.00000
   3       0.00000     0.00000     0.00000     0.00000     0.00000     0.00000
   4       0.00000     0.00000     0.00000     0.00000     0.00000     0.00000
   5       0.00000     0.00000     0.00000     0.00000     0.00000     0.00000
   6       0.00000     0.00000     0.00000     0.00000     0.00000     0.00000
   7       0.00000     0.00000     0.00000     0.00000     0.00000     0.00000
   8       0.00000     0.00000     0.00000     0.00000     0.00000     0.00000
   9       0.00000     0.00000     0.00000     0.00000     0.00000     0.00000
  10       0.00000     0.00000     0.00000     0.00000     0.00000     0.00000
  11       0.00000     0.00000     0.00000     0.00000     0.00000     0.00000
  12       0.00000     0.00000     0.00000     0.00000     0.00000     0.00000
  13       0.00000     0.00000     0.00000     0.00000     0.00000     0.00000
  14       0.00000     0.00000     0.00000     0.00000     0.00000     0.00000
  15       0.00000     0.00000     0.00000     0.00000     0.00000     0.00000

           13          14          15  
       ----------- ----------- -----------
   1       0.00000     0.00000     0.00000
   2       0.00000     0.00000     0.00000
   3       0.00000     0.00000     0.00000
   4       0.00000     0.00000     0.00000
   5       0.00000     0.00000     0.00000
   6       0.00000     0.00000     0.00000
   7       0.00000     0.00000     0.00000
   8       0.00000     0.00000     0.00000
   9       0.00000     0.00000     0.00000
  10       0.00000     0.00000     0.00000
  11       0.00000     0.00000     0.00000
  12       0.00000     0.00000     0.00000
  13       0.00000     0.00000     0.00000
  14       0.00000     0.00000     0.00000
  15       0.00000     0.00000     0.00000

                 WFN1 Final beta-beta 2-matrix occupation numbers
                 ------------------------------------------------


 global array: g_momo2[1:15,1:15],  handle: -993 

            1           2           3           4           5           6  
       ----------- ----------- ----------- ----------- ----------- -----------
   1       0.00000     1.00000     1.00000     0.00000     0.00000     0.00000
   2       1.00000     0.00000     1.00000     0.00000     0.00000     0.00000
   3       1.00000     1.00000     0.00000     0.00000     0.00000     0.00000
   4       0.00000     0.00000     0.00000     0.00000     0.00000     0.00000
   5       0.00000     0.00000     0.00000     0.00000     0.00000     0.00000
   6       0.00000     0.00000     0.00000     0.00000     0.00000     0.00000
   7       0.00000     0.00000     0.00000     0.00000     0.00000     0.00000
   8       0.00000     0.00000     0.00000     0.00000     0.00000     0.00000
   9       0.00000     0.00000     0.00000     0.00000     0.00000     0.00000
  10       0.00000     0.00000     0.00000     0.00000     0.00000     0.00000
  11       0.00000     0.00000     0.00000     0.00000     0.00000     0.00000
  12       0.00000     0.00000     0.00000     0.00000     0.00000     0.00000
  13       0.00000     0.00000     0.00000     0.00000     0.00000     0.00000
  14       0.00000     0.00000     0.00000     0.00000     0.00000     0.00000
  15       0.00000     0.00000     0.00000     0.00000     0.00000     0.00000

            7           8           9          10          11          12  
       ----------- ----------- ----------- ----------- ----------- -----------
   1       0.00000     0.00000     0.00000     0.00000     0.00000     0.00000
   2       0.00000     0.00000     0.00000     0.00000     0.00000     0.00000
   3       0.00000     0.00000     0.00000     0.00000     0.00000     0.00000
   4       0.00000     0.00000     0.00000     0.00000     0.00000     0.00000
   5       0.00000     0.00000     0.00000     0.00000     0.00000     0.00000
   6       0.00000     0.00000     0.00000     0.00000     0.00000     0.00000
   7       0.00000     0.00000     0.00000     0.00000     0.00000     0.00000
   8       0.00000     0.00000     0.00000     0.00000     0.00000     0.00000
   9       0.00000     0.00000     0.00000     0.00000     0.00000     0.00000
  10       0.00000     0.00000     0.00000     0.00000     0.00000     0.00000
  11       0.00000     0.00000     0.00000     0.00000     0.00000     0.00000
  12       0.00000     0.00000     0.00000     0.00000     0.00000     0.00000
  13       0.00000     0.00000     0.00000     0.00000     0.00000     0.00000
  14       0.00000     0.00000     0.00000     0.00000     0.00000     0.00000
  15       0.00000     0.00000     0.00000     0.00000     0.00000     0.00000

           13          14          15  
       ----------- ----------- -----------
   1       0.00000     0.00000     0.00000
   2       0.00000     0.00000     0.00000
   3       0.00000     0.00000     0.00000
   4       0.00000     0.00000     0.00000
   5       0.00000     0.00000     0.00000
   6       0.00000     0.00000     0.00000
   7       0.00000     0.00000     0.00000
   8       0.00000     0.00000     0.00000
   9       0.00000     0.00000     0.00000
  10       0.00000     0.00000     0.00000
  11       0.00000     0.00000     0.00000
  12       0.00000     0.00000     0.00000
  13       0.00000     0.00000     0.00000
  14       0.00000     0.00000     0.00000
  15       0.00000     0.00000     0.00000

                  WFN1 Final alpha Correlation Function Analysis
                  ----------------------------------------------


 global array: Ca[1:15,1:15],  handle: -988 

            1           2           3           4           5           6  
       ----------- ----------- ----------- ----------- ----------- -----------
   1       1.00000     0.00000     0.00000     0.00000     0.00000     0.00000
   2       0.00000     1.00000     0.00000     0.00000     0.00000     0.00000
   3       0.00000     0.00000     0.00000     0.00000     1.00000     0.00000
   4       0.00000     0.00000     1.00000     0.00000     0.00000     0.00000
   5       0.00000     0.00000     0.00000     1.00000     0.00000     0.00000
   6       0.00000     0.00000     0.00000     0.00000     0.00000     1.00000
   7       0.00000     0.00000     0.00000     0.00000     0.00000     0.00000
   8       0.00000     0.00000     0.00000     0.00000     0.00000     0.00000
   9       0.00000     0.00000     0.00000     0.00000     0.00000     0.00000
  10       0.00000     0.00000     0.00000     0.00000     0.00000     0.00000
  11       0.00000     0.00000     0.00000     0.00000     0.00000     0.00000
  12       0.00000     0.00000     0.00000     0.00000     0.00000     0.00000
  13       0.00000     0.00000     0.00000     0.00000     0.00000     0.00000
  14       0.00000     0.00000     0.00000     0.00000     0.00000     0.00000
  15       0.00000     0.00000     0.00000     0.00000     0.00000     0.00000

            7           8           9          10          11          12  
       ----------- ----------- ----------- ----------- ----------- -----------
   1       0.00000     0.00000     0.00000     0.00000     0.00000     0.00000
   2       0.00000     0.00000     0.00000     0.00000     0.00000     0.00000
   3       0.00000     0.00000     0.00000     0.00000     0.00000     0.00000
   4       0.00000     0.00000     0.00000     0.00000     0.00000     0.00000
   5       0.00000     0.00000     0.00000     0.00000     0.00000     0.00000
   6       0.00000     0.00000     0.00000     0.00000     0.00000     0.00000
   7       0.00000     0.00000     1.00000     0.00000     0.00000     0.00000
   8       1.00000     0.00000     0.00000     0.00000     0.00000     0.00000
   9       0.00000     1.00000     0.00000     0.00000     0.00000     0.00000
  10       0.00000     0.00000     0.00000     0.00000     0.00000     0.00000
  11       0.00000     0.00000     0.00000     0.00000     0.00000     1.00000
  12       0.00000     0.00000     0.00000     0.00000     1.00000     0.00000
  13       0.00000     0.00000     0.00000     1.00000     0.00000     0.00000
  14       0.00000     0.00000     0.00000     0.00000     0.00000     0.00000
  15       0.00000     0.00000     0.00000     0.00000     0.00000     0.00000

           13          14          15  
       ----------- ----------- -----------
   1       0.00000     0.00000     0.00000
   2       0.00000     0.00000     0.00000
   3       0.00000     0.00000     0.00000
   4       0.00000     0.00000     0.00000
   5       0.00000     0.00000     0.00000
   6       0.00000     0.00000     0.00000
   7       0.00000     0.00000     0.00000
   8       0.00000     0.00000     0.00000
   9       0.00000     0.00000     0.00000
  10       0.00000     0.00000     1.00000
  11       0.00000     0.00000     0.00000
  12       0.00000     0.00000     0.00000
  13       0.00000     0.00000     0.00000
  14       0.00000     1.00000     0.00000
  15       1.00000     0.00000     0.00000

                   WFN1 Final beta Correlation Function Analysis
                   ---------------------------------------------


 global array: Cb[1:15,1:15],  handle: -987 

            1           2           3           4           5           6  
       ----------- ----------- ----------- ----------- ----------- -----------
   1       0.00000     0.00000     1.00000     0.00000     0.00000     0.00000
   2       0.00000     1.00000     0.00000     0.00000     0.00000     0.00000
   3       1.00000     0.00000     0.00000     0.00000     0.00000     0.00000
   4       0.00000     0.00000     0.00000     0.00000     0.00000     0.00000
   5       0.00000     0.00000     0.00000     0.00000     0.00000     0.00000
   6       0.00000     0.00000     0.00000     0.00000     0.00000     0.00000
   7       0.00000     0.00000     0.00000     0.00000     1.00000     0.00000
   8       0.00000     0.00000     0.00000     0.00000     0.00000     0.00000
   9       0.00000     0.00000     0.00000     0.00000     0.00000     0.00000
  10       0.00000     0.00000     0.00000     0.00000     0.00000     0.00000
  11       0.00000     0.00000     0.00000     1.00000     0.00000     0.00000
  12       0.00000     0.00000     0.00000     0.00000     0.00000     0.00000
  13       0.00000     0.00000     0.00000     0.00000     0.00000     1.00000
  14       0.00000     0.00000     0.00000     0.00000     0.00000     0.00000
  15       0.00000     0.00000     0.00000     0.00000     0.00000     0.00000

            7           8           9          10          11          12  
       ----------- ----------- ----------- ----------- ----------- -----------
   1       0.00000     0.00000     0.00000     0.00000     0.00000     0.00000
   2       0.00000     0.00000     0.00000     0.00000     0.00000     0.00000
   3       0.00000     0.00000     0.00000     0.00000     0.00000     0.00000
   4       0.00000     0.00000     0.00000     1.00000     0.00000     0.00000
   5       0.00000     0.00000     0.00000     0.00000     0.00000     1.00000
   6       0.00000     0.00000     0.00000     0.00000     0.00000     0.00000
   7       0.00000     0.00000     0.00000     0.00000     0.00000     0.00000
   8       1.00000     0.00000     0.00000     0.00000     0.00000     0.00000
   9       0.00000     0.00000     0.00000     0.00000     0.00000     0.00000
  10       0.00000     0.00000     0.00000     0.00000     1.00000     0.00000
  11       0.00000     0.00000     0.00000     0.00000     0.00000     0.00000
  12       0.00000     0.00000     1.00000     0.00000     0.00000     0.00000
  13       0.00000     0.00000     0.00000     0.00000     0.00000     0.00000
  14       0.00000     0.00000     0.00000     0.00000     0.00000     0.00000
  15       0.00000     1.00000     0.00000     0.00000     0.00000     0.00000

           13          14          15  
       ----------- ----------- -----------
   1       0.00000     0.00000     0.00000
   2       0.00000     0.00000     0.00000
   3       0.00000     0.00000     0.00000
   4       0.00000     0.00000     0.00000
   5       0.00000     0.00000     0.00000
   6       0.00000     0.00000     1.00000
   7       0.00000     0.00000     0.00000
   8       0.00000     0.00000     0.00000
   9       1.00000     0.00000     0.00000
  10       0.00000     0.00000     0.00000
  11       0.00000     0.00000     0.00000
  12       0.00000     0.00000     0.00000
  13       0.00000     0.00000     0.00000
  14       0.00000     1.00000     0.00000
  15       0.00000     0.00000     0.00000

                     WFN1 Final Alpha Natural Orbital Analysis
                     -----------------------------------------

 Vector    1  Occ=1.000000D+00  E=-2.071532D+01
              MO Center=  1.1D-08,  3.3D-08, -9.8D-09, r^2= 1.5D-02
   Bfn.  Coefficient  Atom+Function         Bfn.  Coefficient  Atom+Function  
  ----- ------------  ---------------      ----- ------------  ---------------
     1     -0.994022  1 O  s          

 Vector    2  Occ=1.000000D+00  E=-1.408171D+00
              MO Center= -5.1D-05,  8.2D-05, -3.0D-05, r^2= 4.3D-01
   Bfn.  Coefficient  Atom+Function         Bfn.  Coefficient  Atom+Function  
  ----- ------------  ---------------      ----- ------------  ---------------
     2     -0.585001  1 O  s                  6     -0.477152  1 O  s          
     1      0.234278  1 O  s          

 Vector    3  Occ=1.000000D+00  E=-6.040217D-01
              MO Center=  4.1D-05, -8.5D-05,  3.3D-05, r^2= 5.4D-01
   Bfn.  Coefficient  Atom+Function         Bfn.  Coefficient  Atom+Function  
  ----- ------------  ---------------      ----- ------------  ---------------
     4      0.591377  1 O  py                 8      0.383296  1 O  py         
     3     -0.283659  1 O  px                 5     -0.229903  1 O  pz         
     7     -0.183852  1 O  px                 9     -0.149011  1 O  pz         

 Vector    4  Occ=1.000000D+00  E=-7.003395D-01
              MO Center=  9.7D-06,  4.4D-06, -5.5D-07, r^2= 5.1D-01
   Bfn.  Coefficient  Atom+Function         Bfn.  Coefficient  Atom+Function  
  ----- ------------  ---------------      ----- ------------  ---------------
     3     -0.649596  1 O  px                 7     -0.387509  1 O  px         
     4     -0.297308  1 O  py                 8     -0.177355  1 O  py         
     5      0.036723  1 O  pz         

 Vector    5  Occ=1.000000D+00  E=-7.003395D-01
              MO Center=  2.7D-07, -9.1D-07, -2.7D-06, r^2= 5.1D-01
   Bfn.  Coefficient  Atom+Function         Bfn.  Coefficient  Atom+Function  
  ----- ------------  ---------------      ----- ------------  ---------------
     5     -0.674073  1 O  pz                 9     -0.402110  1 O  pz         
     4     -0.229868  1 O  py                 8     -0.137125  1 O  py         
     3      0.067099  1 O  px                 7      0.040027  1 O  px         

 Vector    6  Occ=0.000000D+00  E= 0.000000D+00
              MO Center=  4.2D-04,  3.2D-05, -8.5D-04, r^2= 1.4D+00
   Bfn.  Coefficient  Atom+Function         Bfn.  Coefficient  Atom+Function  
  ----- ------------  ---------------      ----- ------------  ---------------
     6     -2.184450  1 O  s                  2      1.327712  1 O  s          
    13      0.406268  1 O  dyy               10      0.398249  1 O  dxx        
    15      0.360132  1 O  dzz               12      0.091000  1 O  dxz        
    11     -0.088407  1 O  dxy               14     -0.030394  1 O  dyz        

 Vector    7  Occ=0.000000D+00  E= 0.000000D+00
              MO Center=  2.2D-03,  3.0D-04, -1.6D-04, r^2= 1.2D+00
   Bfn.  Coefficient  Atom+Function         Bfn.  Coefficient  Atom+Function  
  ----- ------------  ---------------      ----- ------------  ---------------
     8     -0.946393  1 O  py                 4      0.817559  1 O  py         
     7      0.452293  1 O  px                 3     -0.390753  1 O  px         
     9     -0.194252  1 O  pz                 5      0.157311  1 O  pz         

 Vector    8  Occ=0.000000D+00  E= 0.000000D+00
              MO Center= -1.6D-03,  5.5D-04, -1.4D-03, r^2= 1.2D+00
   Bfn.  Coefficient  Atom+Function         Bfn.  Coefficient  Atom+Function  
  ----- ------------  ---------------      ----- ------------  ---------------
     7      0.968665  1 O  px                 3     -0.818693  1 O  px         
     8      0.464262  1 O  py                 4     -0.392431  1 O  py         

 Vector    9  Occ=0.000000D+00  E= 0.000000D+00
              MO Center=  9.3D-05, -4.3D-04,  4.8D-04, r^2= 1.2D+00
   Bfn.  Coefficient  Atom+Function         Bfn.  Coefficient  Atom+Function  
  ----- ------------  ---------------      ----- ------------  ---------------
     9     -1.055400  1 O  pz                 5      0.895921  1 O  pz         
     8      0.165534  1 O  py                 4     -0.149942  1 O  py         
     7     -0.087160  1 O  px                 3      0.078480  1 O  px         

 Vector   10  Occ=0.000000D+00  E= 0.000000D+00
              MO Center= -5.9D-06,  9.1D-05,  5.1D-06, r^2= 8.9D-01
   Bfn.  Coefficient  Atom+Function         Bfn.  Coefficient  Atom+Function  
  ----- ------------  ---------------      ----- ------------  ---------------
     6      2.255311  1 O  s                 13     -1.336116  1 O  dyy        
    15     -1.322566  1 O  dzz               10     -1.304783  1 O  dxx        
     2      0.634706  1 O  s                  1     -0.398615  1 O  s          

 Vector   11  Occ=0.000000D+00  E= 0.000000D+00
              MO Center= -8.5D-04, -6.0D-04,  4.4D-04, r^2= 6.1D-01
   Bfn.  Coefficient  Atom+Function         Bfn.  Coefficient  Atom+Function  
  ----- ------------  ---------------      ----- ------------  ---------------
    12      1.258719  1 O  dxz               10      0.587223  1 O  dxx        
    11     -0.582157  1 O  dxy               13     -0.328073  1 O  dyy        
    15     -0.245241  1 O  dzz               14      0.198804  1 O  dyz        
     2     -0.088704  1 O  s                  6      0.082285  1 O  s          

 Vector   12  Occ=0.000000D+00  E= 0.000000D+00
              MO Center= -7.5D-04,  2.4D-04,  5.6D-04, r^2= 6.1D-01
   Bfn.  Coefficient  Atom+Function         Bfn.  Coefficient  Atom+Function  
  ----- ------------  ---------------      ----- ------------  ---------------
    11     -1.224785  1 O  dxy               12     -0.863227  1 O  dxz        
    14      0.813168  1 O  dyz               13     -0.176879  1 O  dyy        
    10      0.107649  1 O  dxx               15      0.062206  1 O  dzz        

 Vector   13  Occ=0.000000D+00  E= 0.000000D+00
              MO Center=  4.8D-04,  4.9D-05,  7.5D-04, r^2= 6.1D-01
   Bfn.  Coefficient  Atom+Function         Bfn.  Coefficient  Atom+Function  
  ----- ------------  ---------------      ----- ------------  ---------------
    14      1.239785  1 O  dyz               15      0.571944  1 O  dzz        
    11      0.514591  1 O  dxy               12      0.502898  1 O  dxz        
    10     -0.343340  1 O  dxx               13     -0.165712  1 O  dyy        
     6     -0.083922  1 O  s          

 Vector   14  Occ=0.000000D+00  E= 0.000000D+00
              MO Center= -3.1D-05, -7.1D-05, -6.2D-05, r^2= 6.2D-01
   Bfn.  Coefficient  Atom+Function         Bfn.  Coefficient  Atom+Function  
  ----- ------------  ---------------      ----- ------------  ---------------
    11      0.782898  1 O  dxy               13     -0.711188  1 O  dyy        
    10      0.697834  1 O  dxx               12     -0.612465  1 O  dxz        
     6     -0.136443  1 O  s                 15      0.110567  1 O  dzz        
     2      0.047906  1 O  s          

 Vector   15  Occ=0.000000D+00  E= 0.000000D+00
              MO Center= -1.1D-05, -1.7D-04,  1.9D-04, r^2= 6.1D-01
   Bfn.  Coefficient  Atom+Function         Bfn.  Coefficient  Atom+Function  
  ----- ------------  ---------------      ----- ------------  ---------------
    14     -0.871998  1 O  dyz               15      0.784375  1 O  dzz        
    11     -0.524284  1 O  dxy               13     -0.524772  1 O  dyy        
    10     -0.274132  1 O  dxx               12      0.182090  1 O  dxz        


                     WFN1 Final Beta Natural Orbital Analysis
                     ----------------------------------------

 Vector    1  Occ=1.000000D+00  E=-5.152702D-01
              MO Center= -2.0D-07,  4.1D-07, -1.6D-07, r^2= 5.8D-01
   Bfn.  Coefficient  Atom+Function         Bfn.  Coefficient  Atom+Function  
  ----- ------------  ---------------      ----- ------------  ---------------
     4     -0.561422  1 O  py                 8     -0.417060  1 O  py         
     3      0.269298  1 O  px                 5      0.218267  1 O  pz         
     7      0.200051  1 O  px                 9      0.162143  1 O  pz         

 Vector    2  Occ=1.000000D+00  E=-1.070677D+00
              MO Center= -1.9D-07,  4.0D-07, -1.5D-07, r^2= 4.7D-01
   Bfn.  Coefficient  Atom+Function         Bfn.  Coefficient  Atom+Function  
  ----- ------------  ---------------      ----- ------------  ---------------
     6     -0.559898  1 O  s                  2     -0.519748  1 O  s          
     1      0.227668  1 O  s                 11      0.028003  1 O  dxy        

 Vector    3  Occ=1.000000D+00  E=-2.063796D+01
              MO Center=  3.8D-07, -8.0D-07,  3.1D-07, r^2= 1.5D-02
   Bfn.  Coefficient  Atom+Function         Bfn.  Coefficient  Atom+Function  
  ----- ------------  ---------------      ----- ------------  ---------------
     1     -0.995633  1 O  s          

 Vector    4  Occ=0.000000D+00  E= 0.000000D+00
              MO Center= -1.7D-01, -3.3D-02, -4.4D-02, r^2= 1.3D+00
   Bfn.  Coefficient  Atom+Function         Bfn.  Coefficient  Atom+Function  
  ----- ------------  ---------------      ----- ------------  ---------------
     6     -2.136785  1 O  s                 11      0.937193  1 O  dxy        
    13      0.716906  1 O  dyy                2      0.701254  1 O  s          
    15      0.684703  1 O  dzz               10      0.612631  1 O  dxx        
    12      0.353387  1 O  dxz                7      0.280611  1 O  px         
    14      0.183823  1 O  dyz                8      0.169648  1 O  py         

 Vector    5  Occ=0.000000D+00  E= 0.000000D+00
              MO Center=  1.8D-01,  1.6D-01,  9.1D-02, r^2= 7.2D-01
   Bfn.  Coefficient  Atom+Function         Bfn.  Coefficient  Atom+Function  
  ----- ------------  ---------------      ----- ------------  ---------------
     2      1.245715  1 O  s                  6     -0.779016  1 O  s          
    11     -0.765263  1 O  dxy               12     -0.270145  1 O  dxz        
    13     -0.226584  1 O  dyy               15     -0.223492  1 O  dzz        
     7     -0.221953  1 O  px                14     -0.157244  1 O  dyz        
    10     -0.155141  1 O  dxx                1     -0.147124  1 O  s          

 Vector    6  Occ=0.000000D+00  E= 0.000000D+00
              MO Center=  5.8D-02,  7.7D-02,  4.7D-02, r^2= 9.3D-01
   Bfn.  Coefficient  Atom+Function         Bfn.  Coefficient  Atom+Function  
  ----- ------------  ---------------      ----- ------------  ---------------
     6     -2.152051  1 O  s                 10      1.225096  1 O  dxx        
    15      1.169278  1 O  dzz               13      1.163081  1 O  dyy        
    11     -0.664538  1 O  dxy                2     -0.452160  1 O  s          
     1      0.349494  1 O  s                 12     -0.237891  1 O  dxz        
     7     -0.191030  1 O  px                14     -0.138724  1 O  dyz        

 Vector    7  Occ=0.000000D+00  E= 0.000000D+00
              MO Center=  1.1D-03, -1.2D-03,  3.5D-04, r^2= 1.1D+00
   Bfn.  Coefficient  Atom+Function         Bfn.  Coefficient  Atom+Function  
  ----- ------------  ---------------      ----- ------------  ---------------
     8     -0.891748  1 O  py                 4      0.807998  1 O  py         
     7      0.426093  1 O  px                 3     -0.388069  1 O  px         
     9      0.344972  1 O  pz                 5     -0.311794  1 O  pz         

 Vector    8  Occ=0.000000D+00  E= 0.000000D+00
              MO Center= -2.2D-01, -2.2D-02, -4.5D-02, r^2= 5.7D-01
   Bfn.  Coefficient  Atom+Function         Bfn.  Coefficient  Atom+Function  
  ----- ------------  ---------------      ----- ------------  ---------------
    11     -0.572039  1 O  dxy               14     -0.499967  1 O  dyz        
    13      0.496085  1 O  dyy               10     -0.473389  1 O  dxx        
     3      0.455083  1 O  px                 5     -0.345687  1 O  pz         
     9      0.332465  1 O  pz                 8      0.207245  1 O  py         
     7      0.165552  1 O  px                 4      0.085182  1 O  py         

 Vector    9  Occ=0.000000D+00  E= 0.000000D+00
              MO Center=  2.3D-02, -1.8D-01,  1.9D-01, r^2= 6.9D-01
   Bfn.  Coefficient  Atom+Function         Bfn.  Coefficient  Atom+Function  
  ----- ------------  ---------------      ----- ------------  ---------------
    14      0.920406  1 O  dyz               15     -0.649041  1 O  dzz        
    11     -0.416732  1 O  dxy                9     -0.389163  1 O  pz         
    13      0.353404  1 O  dyy               10      0.284689  1 O  dxx        
     7      0.253329  1 O  px                12      0.241214  1 O  dxz        
     8     -0.030035  1 O  py         

 Vector   10  Occ=0.000000D+00  E= 0.000000D+00
              MO Center= -6.5D-02, -1.1D-02, -1.1D-01, r^2= 7.3D-01
   Bfn.  Coefficient  Atom+Function         Bfn.  Coefficient  Atom+Function  
  ----- ------------  ---------------      ----- ------------  ---------------
    12     -0.925412  1 O  dxz               14      0.562560  1 O  dyz        
     5      0.540105  1 O  pz                 9     -0.440277  1 O  pz         
    15      0.386233  1 O  dzz                7      0.374006  1 O  px         
    10     -0.364364  1 O  dxx                4      0.198073  1 O  py         
    11      0.048093  1 O  dxy        

 Vector   11  Occ=0.000000D+00  E= 0.000000D+00
              MO Center=  8.2D-02, -9.2D-02, -1.3D-01, r^2= 6.5D-01
   Bfn.  Coefficient  Atom+Function         Bfn.  Coefficient  Atom+Function  
  ----- ------------  ---------------      ----- ------------  ---------------
     5     -0.615713  1 O  pz                14      0.563031  1 O  dyz        
     7     -0.551639  1 O  px                 3      0.467010  1 O  px         
    15      0.316911  1 O  dzz               12     -0.310574  1 O  dxz        
     8     -0.276121  1 O  py                10     -0.255298  1 O  dxx        
    11      0.164078  1 O  dxy               13     -0.038752  1 O  dyy        

 Vector   12  Occ=0.000000D+00  E= 0.000000D+00
              MO Center=  5.1D-02,  7.8D-03,  1.5D-01, r^2= 7.2D-01
   Bfn.  Coefficient  Atom+Function         Bfn.  Coefficient  Atom+Function  
  ----- ------------  ---------------      ----- ------------  ---------------
    14     -0.778957  1 O  dyz               13      0.521546  1 O  dyy        
     9     -0.507438  1 O  pz                11      0.401460  1 O  dxy        
     3     -0.396009  1 O  px                10     -0.343877  1 O  dxx        
    12     -0.274302  1 O  dxz               15     -0.199595  1 O  dzz        
     4     -0.164911  1 O  py                 8     -0.151578  1 O  py         

 Vector   13  Occ=0.000000D+00  E= 0.000000D+00
              MO Center=  1.3D-01,  2.6D-02, -1.1D-01, r^2= 7.7D-01
   Bfn.  Coefficient  Atom+Function         Bfn.  Coefficient  Atom+Function  
  ----- ------------  ---------------      ----- ------------  ---------------
    13      0.558170  1 O  dyy                7     -0.547067  1 O  px         
    14      0.504107  1 O  dyz                5      0.366447  1 O  pz         
    10     -0.340001  1 O  dxx               11      0.322283  1 O  dxy        
     9      0.235667  1 O  pz                 4      0.223079  1 O  py         
    15     -0.221688  1 O  dzz               12      0.179082  1 O  dxz        

 Vector   14  Occ=0.000000D+00  E= 0.000000D+00
              MO Center= -9.0D-02, -4.0D-03, -8.6D-02, r^2= 7.0D-01
   Bfn.  Coefficient  Atom+Function         Bfn.  Coefficient  Atom+Function  
  ----- ------------  ---------------      ----- ------------  ---------------
    12     -1.264622  1 O  dxz               15     -0.474744  1 O  dzz        
    10      0.413184  1 O  dxx                9      0.402019  1 O  pz         
    11      0.391492  1 O  dxy                5     -0.258248  1 O  pz         
     8      0.124926  1 O  py                14     -0.107066  1 O  dyz        
     3      0.105337  1 O  px                13      0.071629  1 O  dyy        

 Vector   15  Occ=0.000000D+00  E= 0.000000D+00
              MO Center=  1.4D-02,  7.0D-02,  4.1D-02, r^2= 6.6D-01
   Bfn.  Coefficient  Atom+Function         Bfn.  Coefficient  Atom+Function  
  ----- ------------  ---------------      ----- ------------  ---------------
     3      0.700483  1 O  px                14     -0.564598  1 O  dyz        
     9     -0.485942  1 O  pz                 4      0.482807  1 O  py         
    11      0.381046  1 O  dxy                5      0.377540  1 O  pz         
     8     -0.341836  1 O  py                 7     -0.318724  1 O  px         
    10      0.299929  1 O  dxx               12      0.164696  1 O  dxz        


 Task  times  cpu:       87.5s     wall:       93.8s


                                NWChem Input Module
                                -------------------



                                NWChem WFN1 Module
                                ------------------



      Superposition of Atomic Density Guess
      -------------------------------------

 Sum of atomic energies:         -74.75435223

      Non-variational initial energy
      ------------------------------

 Total energy =     -74.250355
 1-e energy   =    -103.191043
 2-e energy   =      28.940688
 HOMO         =      -0.368773
 LUMO         =      -0.368773

 iteration              energy           error          err Na          err Nb          err Ca          err Cb
 ---------              ------           -----          ------          ------          ------          ------
         1        -75.44759760        2.317705        0.031731        0.006145        0.938616        1.341213
         2        -75.46356045        3.023863        0.073571        0.647011        0.951308        1.351972
         3        -75.47925597        2.142075        0.076259        0.647580        0.469138        0.949098
         4        -75.48189954        2.052301        0.063450        0.567968        0.469313        0.951571
         5        -75.48518019        0.902220        0.063541        0.568079        0.052591        0.218009
         6        -75.48590199        4.537662        0.387929        3.890138        0.052900        0.206695
         7        -75.48675220        4.414454        0.389052        3.891301        0.022015        0.112085
         8        -75.48720466        1.469004        0.119094        1.210615        0.021898        0.117397
         9        -75.48746550        1.398872        0.119077        1.210674        0.016670        0.052450
        10        -75.48774020        1.855300        0.153117        1.633393        0.016672        0.052118
        11        -75.48779381        1.981023        0.153214        1.633433        0.093871        0.100504
        12        -75.48802000        1.000214        0.068158        0.736689        0.093862        0.101505
        13        -75.48804668        0.853805        0.068158        0.736688        0.014026        0.034932
        14        -75.48820548        0.853749        0.065308        0.739388        0.014017        0.035036
        15        -75.48822521        0.903219        0.065357        0.739377        0.047199        0.051287
        16        -75.48835170        0.559928        0.037062        0.424127        0.047182        0.051557
        17        -75.48836800        0.502478        0.037062        0.424125        0.012458        0.028833
        18        -75.48845240        0.392171        0.027329        0.323436        0.012447        0.028959
        19        -75.48846643        0.411526        0.027357        0.323424        0.027567        0.033178
        20        -75.48853061        0.301746        0.018639        0.222277        0.027552        0.033277
        21        -75.48854284        0.276510        0.018640        0.222277        0.011399        0.024195
        22        -75.48857985        0.134944        0.008162        0.091105        0.011388        0.024289
        23        -75.48859123        0.141434        0.008177        0.091100        0.017872        0.024285
        24        -75.48861516        0.112771        0.005960        0.064617        0.017859        0.024336
        25        -75.48862553        0.101734        0.005960        0.064617        0.010649        0.020508
        26        -75.48863403        0.037067        0.001633        0.004245        0.010641        0.020549
        27        -75.48864388        0.038017        0.001640        0.004244        0.012977        0.019155
        28        -75.48864563        0.033678        0.001314        0.000222        0.012971        0.019171
        29        -75.48864563        0.026331        0.001314        0.000222        0.012971        0.011824
        30        -75.48864567        0.026307        0.001301        0.000210        0.012970        0.011825
        31        -75.48588470        1.601024        0.001325        0.000209        1.119007        0.480482
        32        -75.48588471        1.601011        0.001322        0.000206        1.119003        0.480480
        33        -75.48869728        0.016492        0.001318        0.000207        0.009291        0.005677
        34        -75.48803617        0.015980        0.000853        0.000220        0.009163        0.005743
        35        -75.48805074        0.014994        0.000854        0.000220        0.008688        0.005231
        36        -75.48805539        0.014865        0.000761        0.000194        0.008676        0.005234
        37        -75.48806276        0.014379        0.000763        0.000194        0.008600        0.004822
        38        -75.48806306        0.014326        0.000740        0.000166        0.008597        0.004823
        39        -75.48807149        0.013915        0.000740        0.000166        0.008430        0.004578
        40        -75.48807152        0.013902        0.000732        0.000163        0.008429        0.004578
        41        -75.48807824        0.013558        0.000733        0.000163        0.008351        0.004311
        42        -75.48807824        0.013555        0.000731        0.000162        0.008350        0.004311
        43        -75.48808476        0.013262        0.000732        0.000162        0.008244        0.004124
        44        -75.48808476        0.013261        0.000731        0.000162        0.008244        0.004124
        45        -75.48809141        0.012976        0.000732        0.000162        0.008170        0.003912
        46        -75.48755077        0.012673        0.000418        0.000178        0.008113        0.003964
        47        -75.48755781        0.012402        0.000419        0.000178        0.008015        0.003791
        48        -75.48759433        0.012355        0.000414        0.000176        0.007983        0.003782
        49        -75.48759433        0.010296        0.000414        0.000176        0.005924        0.003782
        50        -75.48759916        0.010664        0.000630        0.000339        0.005915        0.003781
        51        -75.48760654        0.010419        0.000630        0.000339        0.005839        0.003611
        52        -75.48761270        0.014288        0.002859        0.001998        0.005823        0.003609
        53        -75.48762012        0.014047        0.002860        0.001998        0.005737        0.003452
        54        -75.48762199        0.012800        0.002110        0.001507        0.005731        0.003452
        55        -75.48762981        0.012579        0.002109        0.001507        0.005663        0.003300
        56        -75.48763214        0.018632        0.005464        0.004216        0.005653        0.003298
        57        -75.48764002        0.018408        0.005466        0.004215        0.005572        0.003155
        58        -75.48764218        0.021266        0.006968        0.005578        0.005565        0.003154
        59        -75.48765028        0.021058        0.006967        0.005578        0.005493        0.003020
        60        -75.48765181        0.014253        0.003151        0.002595        0.005488        0.003019
        61        -75.48766010        0.014051        0.003153        0.002595        0.005414        0.002890
        62        -75.48766236        0.022574        0.007652        0.006627        0.005406        0.002889
        63        -75.48767115        0.022394        0.007651        0.006627        0.005346        0.002770
        64        -75.48767271        0.013614        0.002913        0.002591        0.005341        0.002770
        65        -75.48768163        0.013412        0.002914        0.002590        0.005260        0.002648
        66        -75.48768425        0.027398        0.010057        0.009442        0.005252        0.002647
        67        -75.48769398        0.027247        0.010055        0.009442        0.005204        0.002545
        68        -75.48769588        0.013878        0.003117        0.003015        0.005200        0.002545
        69        -75.48770567        0.013669        0.003118        0.003015        0.005111        0.002425
        70        -75.48770897        0.036568        0.014385        0.014656        0.005102        0.002424
        71        -75.48771983        0.036464        0.014383        0.014656        0.005077        0.002348
        72        -75.48772230        0.013491        0.002956        0.003113        0.005073        0.002348
        73        -75.48773343        0.013239        0.002957        0.003113        0.004956        0.002213
        74        -75.48773774        0.050077        0.020338        0.022581        0.004947        0.002212
        75        -75.48775194        0.050051        0.020334        0.022579        0.004965        0.002173
        76        -75.48775520        0.012409        0.002450        0.002825        0.004961        0.002173
        77        -75.48776918        0.012060        0.002450        0.002825        0.004788        0.001996
        78        -75.48777492        0.069046        0.028035        0.034238        0.004778        0.001995
        79        -75.48779456        0.069232        0.028030        0.034234        0.004910        0.002058
        80        -75.48779896        0.010942        0.001747        0.002229        0.004907        0.002059
        81        -75.48782021        0.010333        0.001747        0.002229        0.004594        0.001763
        82        -75.48782821        0.096551        0.038107        0.052102        0.004582        0.001761
        83        -75.48785113        0.096868        0.038101        0.052095        0.004772        0.001901
        84        -75.48785734        0.009570        0.001187        0.001711        0.004769        0.001902
        85        -75.48788234        0.008881        0.001187        0.001711        0.004409        0.001573
        86        -75.48789438        0.142909        0.053222        0.083723        0.004395        0.001569
        87        -75.48792130        0.143368        0.053216        0.083710        0.004652        0.001791
        88        -75.48793069        0.008111        0.000624        0.001044        0.004650        0.001793
        89        -75.48796010        0.007296        0.000624        0.001044        0.004218        0.001409
        90        -75.48798165        0.238681        0.079651        0.153429        0.004198        0.001403
        91        -75.48804647        0.240779        0.079633        0.153364        0.005335        0.002447
        92        -75.48806339        0.007985        0.000089        0.000109        0.005334        0.002454
        93        -75.48814169        0.005282        0.000089        0.000109        0.003890        0.001194
        94        -75.48823056        0.356687        0.063748        0.287945        0.003817        0.001177
        95        -75.48832001        0.359865        0.063727        0.287790        0.005546        0.002801
        96        -75.48835544        0.008445        0.000061        0.000020        0.005547        0.002818
        97        -75.48846474        0.004768        0.000061        0.000020        0.003559        0.001128
        98        -75.48952006        6.028979        2.839137        3.185513        0.003391        0.000938
        99        -75.48958067        6.030321        2.839226        3.184903        0.004360        0.001832
       100        -75.48996263        0.009304        0.000990        0.001907        0.004370        0.002038
       101        -75.49004223        0.007379        0.000990        0.001906        0.003307        0.001176
       102        -75.49014792        0.346089        0.097048        0.244615        0.003272        0.001155
       103        -75.49023275        0.348250        0.097044        0.244517        0.004444        0.002245
       104        -75.49028666        0.007292        0.000449        0.000129        0.004450        0.002265
       105        -75.49038272        0.005065        0.000449        0.000129        0.003210        0.001278
       106        -75.49038823        0.005383        0.000618        0.000284        0.003204        0.001277
       107        -75.49049563        0.008255        0.000619        0.000284        0.004698        0.002653
       108        -75.49049856        0.007997        0.000484        0.000158        0.004701        0.002654
       109        -75.49061888        0.005221        0.000484        0.000158        0.003145        0.001434
       110        -75.49062032        0.005376        0.000563        0.000237        0.003142        0.001434
       111        -75.49075509        0.009025        0.000564        0.000236        0.005053        0.003171
       112        -75.49075584        0.008907        0.000504        0.000177        0.005054        0.003171
       113        -75.49090706        0.005431        0.000505        0.000177        0.003092        0.001657
       114        -75.49090743        0.005510        0.000545        0.000217        0.003091        0.001657
       115        -75.49107696        0.010141        0.000546        0.000217        0.005533        0.003845
       116        -75.49107715        0.010084        0.000517        0.000188        0.005534        0.003845
       117        -75.49126751        0.005718        0.000517        0.000188        0.003054        0.001959
       118        -75.49126761        0.005759        0.000538        0.000208        0.003054        0.001959
       119        -75.49148100        0.011623        0.000539        0.000208        0.006169        0.004707
       120        -75.49148105        0.011595        0.000525        0.000194        0.006169        0.004707
       121        -75.49172069        0.006108        0.000525        0.000193        0.003033        0.002356
       122        -75.49172071        0.006128        0.000535        0.000204        0.003033        0.002356
       123        -75.49198908        0.013529        0.000537        0.000204        0.006994        0.005795
       124        -75.49198909        0.013515        0.000530        0.000197        0.006994        0.005795
       125        -75.49229027        0.006624        0.000530        0.000197        0.003032        0.002865
       126        -75.49229028        0.006634        0.000535        0.000202        0.003032        0.002865
       127        -75.49262694        0.015929        0.000536        0.000201        0.008044        0.007146
       128        -75.49262694        0.015923        0.000534        0.000198        0.008044        0.007146
       129        -75.49300418        0.007291        0.000534        0.000198        0.003054        0.003505
       130        -75.49300418        0.007296        0.000536        0.000201        0.003054        0.003505
       131        -75.49342465        0.018894        0.000537        0.000200        0.009358        0.008799
       132        -75.49342465        0.018893        0.000537        0.000199        0.009358        0.008799
       133        -75.49389466        0.008131        0.000537        0.000199        0.003101        0.004294
       134        -75.49389466        0.008133        0.000538        0.000200        0.003101        0.004294
       135        -75.49441641        0.022484        0.000539        0.000199        0.010966        0.010780
       136        -75.49441641        0.022484        0.000539        0.000200        0.010966        0.010780
       137        -75.49499763        0.009159        0.000540        0.000199        0.003177        0.005243
       138        -75.49501131        0.009012        0.000539        0.000054        0.003177        0.005242
       139        -75.49565291        0.026573        0.000540        0.000054        0.012882        0.013096
       140        -75.49566840        0.027276        0.001155        0.000150        0.012874        0.013097
       141        -75.49637980        0.010932        0.001155        0.000150        0.003273        0.006354
       142        -75.49638695        0.010350        0.000654        0.000065        0.003277        0.006355
       143        -75.49716716        0.031560        0.000656        0.000065        0.015101        0.015739
       144        -75.49716964        0.031792        0.000865        0.000090        0.015099        0.015739
       145        -75.49802964        0.011979        0.000865        0.000090        0.003406        0.007619
       146        -75.49803077        0.011811        0.000714        0.000071        0.003407        0.007619
       147        -75.49896593        0.037000        0.000716        0.000071        0.017582        0.018632
       148        -75.49896635        0.037096        0.000802        0.000081        0.017581        0.018632
       149        -75.49998952        0.013442        0.000802        0.000081        0.003560        0.008999
       150        -75.49998972        0.013377        0.000743        0.000074        0.003560        0.008999
       151        -75.50109089        0.042689        0.000745        0.000074        0.020221        0.021648
       152        -75.50109095        0.042727        0.000780        0.000078        0.020221        0.021649
       153        -75.50228487        0.015011        0.000779        0.000078        0.003724        0.010430
       154        -75.50228490        0.014985        0.000756        0.000076        0.003724        0.010430
       155        -75.50355432        0.048292        0.000758        0.000076        0.022861        0.024597
       156        -75.50355433        0.048305        0.000770        0.000077        0.022861        0.024597
       157        -75.50491586        0.016544        0.000770        0.000077        0.003884        0.011813
       158        -75.50491586        0.016534        0.000761        0.000076        0.003884        0.011813
       159        -75.50634347        0.053357        0.000763        0.000077        0.025289        0.027228
       160        -75.50634347        0.053358        0.000764        0.000077        0.025289        0.027228
       161        -75.50785551        0.017887        0.000764        0.000077        0.004018        0.013028
       162        -75.50785551        0.017885        0.000762        0.000077        0.004019        0.013028
       163        -75.50941648        0.057367        0.000765        0.000078        0.027257        0.029267
       164        -75.50941648        0.057362        0.000760        0.000077        0.027257        0.029267
       165        -75.51104637        0.018887        0.000760        0.000078        0.004107        0.013942
       166        -75.51104637        0.018888        0.000761        0.000078        0.004107        0.013942
       167        -75.51270093        0.059832        0.000763        0.000079        0.028529        0.030460
       168        -75.51270093        0.059823        0.000756        0.000078        0.028529        0.030460
       169        -75.51440160        0.019405        0.000755        0.000079        0.004132        0.014440
       170        -75.51440160        0.019408        0.000758        0.000079        0.004132        0.014440
       171        -75.51609783        0.060402        0.000760        0.000081        0.028928        0.030634
       172        -75.51609784        0.060393        0.000751        0.000080        0.028928        0.030634
       173        -75.51781228        0.019357        0.000751        0.000081        0.004080        0.014446
       174        -75.51781228        0.019360        0.000753        0.000081        0.004080        0.014446
       175        -75.51949192        0.058962        0.000756        0.000083        0.028382        0.029741
       176        -75.51949193        0.058950        0.000745        0.000082        0.028382        0.029741
       177        -75.52116027        0.018727        0.000745        0.000083        0.003950        0.013950
       178        -75.52116027        0.018731        0.000748        0.000083        0.003950        0.013950
       179        -75.52276632        0.055662        0.000750        0.000086        0.026949        0.027877
       180        -75.52276633        0.055648        0.000738        0.000085        0.026949        0.027877
       181        -75.52433390        0.017583        0.000737        0.000086        0.003752        0.013007
       182        -75.52433390        0.017587        0.000741        0.000086        0.003752        0.013007
       183        -75.52581803        0.050889        0.000743        0.000090        0.024797        0.025258
       184        -75.52581805        0.050873        0.000729        0.000088        0.024797        0.025258
       185        -75.52724220        0.016050        0.000729        0.000089        0.003505        0.011727
       186        -75.52724220        0.016056        0.000734        0.000090        0.003505        0.011727
       187        -75.52857013        0.045171        0.000736        0.000094        0.022169        0.022172
       188        -75.52857015        0.045152        0.000720        0.000092        0.022169        0.022172
       189        -75.52982419        0.014291        0.000719        0.000093        0.003230        0.010248
       190        -75.52982420        0.014298        0.000726        0.000094        0.003230        0.010248
       191        -75.53097779        0.039061        0.000728        0.000099        0.019323        0.018912
       192        -75.53097781        0.039041        0.000710        0.000096        0.019323        0.018912
[...]
   2      -0.00000    -0.00000    -0.00000
   3      -0.00000    -0.00000    -0.00000
   4       0.00000     0.00000    -0.00000
   5       0.00000     0.00000     0.00000
   6       0.00000    -0.00000    -0.00000
   7       0.00000    -0.00000     0.00000
   8      -0.00000     0.00000     0.00000
   9      -0.00000    -0.00000    -0.00000
  10      -0.00000    -0.00000     0.00000
  11      -0.00000    -0.00001    -1.00000
  12      -0.00000    -0.00000     0.00000
  13      -1.00000     0.00000     0.00000
  14       0.00000     0.00000     0.00000
  15      -0.00000    -1.00000     0.00001

                     WFN1 Final Alpha Natural Orbital Analysis
                     -----------------------------------------

 Vector    1  Occ=1.000000D+00  E=-1.427656D+00
              MO Center=  4.3D-05, -8.8D-05,  2.0D-05, r^2= 4.1D-01
   Bfn.  Coefficient  Atom+Function         Bfn.  Coefficient  Atom+Function  
  ----- ------------  ---------------      ----- ------------  ---------------
     2      0.618600  1 O  s                  6      0.440109  1 O  s          
     1     -0.235790  1 O  s          

 Vector    2  Occ=1.000000D+00  E=-2.078033D+01
              MO Center= -2.0D-08,  3.9D-08,  2.5D-09, r^2= 1.5D-02
   Bfn.  Coefficient  Atom+Function         Bfn.  Coefficient  Atom+Function  
  ----- ------------  ---------------      ----- ------------  ---------------
     1     -0.994130  1 O  s          

 Vector    3  Occ=8.196408D-01  E=-5.846995D-01
              MO Center= -4.4D-05,  9.4D-05, -2.2D-05, r^2= 4.9D-01
   Bfn.  Coefficient  Atom+Function         Bfn.  Coefficient  Atom+Function  
  ----- ------------  ---------------      ----- ------------  ---------------
     4      0.652940  1 O  py                 8      0.352621  1 O  py         
     3     -0.308677  1 O  px                 7     -0.166698  1 O  px         
     5     -0.152793  1 O  pz                 9     -0.085334  1 O  pz         

 Vector    4  Occ=8.177686D-01  E=-5.852941D-01
              MO Center=  8.5D-09, -2.7D-06,  5.7D-07, r^2= 4.8D-01
   Bfn.  Coefficient  Atom+Function         Bfn.  Coefficient  Atom+Function  
  ----- ------------  ---------------      ----- ------------  ---------------
     3     -0.671581  1 O  px                 7     -0.360120  1 O  px         
     4     -0.309222  1 O  py                 8     -0.165620  1 O  py         
     5      0.034998  1 O  pz         

 Vector    5  Occ=8.198182D-01  E=-5.851416D-01
              MO Center=  9.8D-07, -1.9D-06,  1.4D-06, r^2= 4.9D-01
   Bfn.  Coefficient  Atom+Function         Bfn.  Coefficient  Atom+Function  
  ----- ------------  ---------------      ----- ------------  ---------------
     5     -0.721431  1 O  pz                 9     -0.389487  1 O  pz         
     4     -0.153363  1 O  py                 8     -0.085464  1 O  py         
     3      0.032804  1 O  px         

 Vector    6  Occ=1.844471D-01  E= 7.512474D-02
              MO Center= -7.2D-06,  1.5D-05, -6.2D-06, r^2= 1.4D+00
   Bfn.  Coefficient  Atom+Function         Bfn.  Coefficient  Atom+Function  
  ----- ------------  ---------------      ----- ------------  ---------------
     6      2.210905  1 O  s                  2     -1.315318  1 O  s          
    10     -0.395566  1 O  dxx               13     -0.394513  1 O  dyy        
    15     -0.392133  1 O  dzz        

 Vector    7  Occ=1.185435D-01  E= 6.071927D-02
              MO Center=  9.1D-06, -1.9D-05, -5.1D-06, r^2= 1.2D+00
   Bfn.  Coefficient  Atom+Function         Bfn.  Coefficient  Atom+Function  
  ----- ------------  ---------------      ----- ------------  ---------------
     8     -0.958346  1 O  py                 4      0.785381  1 O  py         
     7      0.452202  1 O  px                 3     -0.370698  1 O  px         
     9     -0.231838  1 O  pz                 5      0.191849  1 O  pz         

 Vector    8  Occ=1.211692D-01  E= 6.193364D-02
              MO Center= -7.7D-07,  1.9D-06, -4.2D-07, r^2= 1.2D+00
   Bfn.  Coefficient  Atom+Function         Bfn.  Coefficient  Atom+Function  
  ----- ------------  ---------------      ----- ------------  ---------------
     7      0.981382  1 O  px                 3     -0.802516  1 O  px         
     8      0.464138  1 O  py                 4     -0.379649  1 O  py         

 Vector    9  Occ=1.186127D-01  E= 6.073650D-02
              MO Center=  5.6D-07, -1.1D-06,  1.3D-05, r^2= 1.2D+00
   Bfn.  Coefficient  Atom+Function         Bfn.  Coefficient  Atom+Function  
  ----- ------------  ---------------      ----- ------------  ---------------
     9     -1.059677  1 O  pz                 5      0.868445  1 O  pz         
     8      0.207653  1 O  py                 4     -0.172110  1 O  py         
     7     -0.103121  1 O  px                 3      0.084965  1 O  px         

 Vector   10  Occ=1.086371D-15  E= 1.439781D-15
              MO Center= -6.0D-10,  2.6D-07, -4.5D-07, r^2= 6.1D-01
   Bfn.  Coefficient  Atom+Function         Bfn.  Coefficient  Atom+Function  
  ----- ------------  ---------------      ----- ------------  ---------------
    14      0.902912  1 O  dyz               10      0.789697  1 O  dxx        
    15     -0.580005  1 O  dzz               12      0.422940  1 O  dxz        
    13     -0.171672  1 O  dyy               11      0.165938  1 O  dxy        

 Vector   11  Occ=1.425548D-15  E= 1.889088D-15
              MO Center= -4.1D-07,  7.6D-07, -4.5D-07, r^2= 6.1D-01
   Bfn.  Coefficient  Atom+Function         Bfn.  Coefficient  Atom+Function  
  ----- ------------  ---------------      ----- ------------  ---------------
    14     -1.148659  1 O  dyz               15     -0.631932  1 O  dzz        
    12      0.545053  1 O  dxz               13      0.419172  1 O  dyy        
    11     -0.410813  1 O  dxy               10      0.180491  1 O  dxx        

 Vector   12  Occ=2.064276D-20  E= 2.741241D-20
              MO Center= -4.1D-07,  1.0D-06,  1.4D-07, r^2= 6.1D-01
   Bfn.  Coefficient  Atom+Function         Bfn.  Coefficient  Atom+Function  
  ----- ------------  ---------------      ----- ------------  ---------------
    12      1.000725  1 O  dxz               13     -0.657742  1 O  dyy        
    14     -0.585694  1 O  dyz               15      0.535641  1 O  dzz        
    10      0.293987  1 O  dxx               11      0.240088  1 O  dxy        
     6     -0.097744  1 O  s                  2     -0.027348  1 O  s          

 Vector   13  Occ=2.383696D-15  E= 3.161614D-15
              MO Center= -4.6D-07,  5.6D-07,  7.8D-08, r^2= 6.1D-01
   Bfn.  Coefficient  Atom+Function         Bfn.  Coefficient  Atom+Function  
  ----- ------------  ---------------      ----- ------------  ---------------
    11      1.363820  1 O  dxy               12     -0.741464  1 O  dxz        
    14     -0.614715  1 O  dyz               10      0.219984  1 O  dxx        
    15     -0.218669  1 O  dzz               13     -0.114146  1 O  dyy        
     6      0.066372  1 O  s          

 Vector   14  Occ=9.237638D-17  E= 1.328629D-16
              MO Center= -3.5D-07, -5.1D-09,  1.5D-07, r^2= 6.3D-01
   Bfn.  Coefficient  Atom+Function         Bfn.  Coefficient  Atom+Function  
  ----- ------------  ---------------      ----- ------------  ---------------
    12      0.963704  1 O  dxz               11      0.898097  1 O  dxy        
    10     -0.829467  1 O  dxx                6      0.618961  1 O  s          
    15     -0.381806  1 O  dzz               14      0.367829  1 O  dyz        
     2      0.175516  1 O  s                 13      0.119445  1 O  dyy        
     1     -0.109565  1 O  s          

 Vector   15  Occ=4.575675D-20  E= 1.259236D-19
              MO Center=  4.6D-07, -2.3D-07,  6.0D-08, r^2= 8.6D-01
   Bfn.  Coefficient  Atom+Function         Bfn.  Coefficient  Atom+Function  
  ----- ------------  ---------------      ----- ------------  ---------------
     6      2.153858  1 O  s                 13     -1.441154  1 O  dyy        
    15     -1.235980  1 O  dzz               10     -1.123457  1 O  dxx        
     2      0.611667  1 O  s                  1     -0.381440  1 O  s          
    11     -0.281901  1 O  dxy               12     -0.209983  1 O  dxz        
    14     -0.095502  1 O  dyz        


                     WFN1 Final Beta Natural Orbital Analysis
                     ----------------------------------------

 Vector    1  Occ=1.000000D+00  E=-2.068938D+01
              MO Center=  8.1D-08, -1.1D-07, -7.4D-07, r^2= 1.5D-02
   Bfn.  Coefficient  Atom+Function         Bfn.  Coefficient  Atom+Function  
  ----- ------------  ---------------      ----- ------------  ---------------
     1     -0.995344  1 O  s          

 Vector    2  Occ=7.898809D-01  E=-8.974588D-01
              MO Center= -3.8D-05,  7.7D-05, -1.8D-05, r^2= 4.6D-01
   Bfn.  Coefficient  Atom+Function         Bfn.  Coefficient  Atom+Function  
  ----- ------------  ---------------      ----- ------------  ---------------
     2     -0.540238  1 O  s                  6     -0.528493  1 O  s          
     1      0.228300  1 O  s          

 Vector    3  Occ=4.035740D-01  E=-2.253502D-01
              MO Center=  3.3D-05, -6.8D-05,  2.9D-05, r^2= 5.6D-01
   Bfn.  Coefficient  Atom+Function         Bfn.  Coefficient  Atom+Function  
  ----- ------------  ---------------      ----- ------------  ---------------
     4      0.573839  1 O  py                 8      0.397862  1 O  py         
     3     -0.275546  1 O  px                 5     -0.233039  1 O  pz         
     7     -0.191049  1 O  px                 9     -0.161578  1 O  pz         

 Vector    4  Occ=4.032904D-01  E=-2.199390D-01
              MO Center= -4.2D-06,  1.1D-05, -2.4D-06, r^2= 5.6D-01
   Bfn.  Coefficient  Atom+Function         Bfn.  Coefficient  Atom+Function  
  ----- ------------  ---------------      ----- ------------  ---------------
     3     -0.612909  1 O  px                 7     -0.429768  1 O  px         
     4     -0.280728  1 O  py                 8     -0.196832  1 O  py         
     5      0.033433  1 O  pz         

 Vector    5  Occ=4.032546D-01  E=-2.186244D-01
              MO Center= -4.0D-06,  6.5D-06, -1.5D-05, r^2= 5.6D-01
   Bfn.  Coefficient  Atom+Function         Bfn.  Coefficient  Atom+Function  
  ----- ------------  ---------------      ----- ------------  ---------------
     5     -0.632284  1 O  pz                 9     -0.444561  1 O  pz         
     4     -0.224062  1 O  py                 8     -0.157552  1 O  py         
     3      0.068152  1 O  px                 7      0.047845  1 O  px         

 Vector    6  Occ=6.965346D-17  E= 9.078476D-17
              MO Center=  4.5D-04, -2.3D-04,  3.9D-04, r^2= 6.2D-01
   Bfn.  Coefficient  Atom+Function         Bfn.  Coefficient  Atom+Function  
  ----- ------------  ---------------      ----- ------------  ---------------
    12      0.992411  1 O  dxz               11     -0.891680  1 O  dxy        
    14     -0.674196  1 O  dyz               15     -0.450426  1 O  dzz        
    10      0.380248  1 O  dxx               13     -0.243392  1 O  dyy        
     6      0.195009  1 O  s                  2      0.032031  1 O  s          
     1     -0.029854  1 O  s          

 Vector    7  Occ=3.456039D-12  E= 8.831530D-13
              MO Center= -1.8D-03,  7.9D-04,  1.2D-03, r^2= 1.2D+00
   Bfn.  Coefficient  Atom+Function         Bfn.  Coefficient  Atom+Function  
  ----- ------------  ---------------      ----- ------------  ---------------
     8     -0.937883  1 O  py                 4      0.832174  1 O  py         
     7      0.445602  1 O  px                 3     -0.395356  1 O  px         
     9     -0.189536  1 O  pz                 5      0.170040  1 O  pz         

 Vector    8  Occ=2.842189D-11  E= 7.225290D-12
              MO Center=  1.3D-03,  6.7D-04, -8.5D-05, r^2= 1.2D+00
   Bfn.  Coefficient  Atom+Function         Bfn.  Coefficient  Atom+Function  
  ----- ------------  ---------------      ----- ------------  ---------------
     7      0.952278  1 O  px                 3     -0.847326  1 O  px         
     8      0.452989  1 O  py                 4     -0.403104  1 O  py         

 Vector    9  Occ=6.066714D-15  E= 1.542945D-15
              MO Center= -1.2D-04, -6.2D-04, -1.4D-04, r^2= 1.2D+00
   Bfn.  Coefficient  Atom+Function         Bfn.  Coefficient  Atom+Function  
  ----- ------------  ---------------      ----- ------------  ---------------
     9     -1.037215  1 O  pz                 5      0.922992  1 O  pz         
     8      0.171207  1 O  py                 4     -0.150652  1 O  py         
     7     -0.084551  1 O  px                 3      0.074436  1 O  px         

 Vector   10  Occ=6.527137D-20  E= 5.850422D-20
              MO Center=  1.2D-04, -2.4D-03,  3.4D-04, r^2= 1.5D+00
   Bfn.  Coefficient  Atom+Function         Bfn.  Coefficient  Atom+Function  
  ----- ------------  ---------------      ----- ------------  ---------------
     6      2.642579  1 O  s                 13     -1.084220  1 O  dyy        
     2     -0.857261  1 O  s                 15     -0.848772  1 O  dzz        
    10     -0.537871  1 O  dxx               12     -0.506968  1 O  dxz        
     1     -0.155214  1 O  s          

 Vector   11  Occ=2.665705D-20  E= 4.706685D-20
              MO Center= -1.5D-04,  2.5D-04, -9.4D-05, r^2= 6.1D-01
   Bfn.  Coefficient  Atom+Function         Bfn.  Coefficient  Atom+Function  
  ----- ------------  ---------------      ----- ------------  ---------------
     6     -1.096710  1 O  s                 13      1.091138  1 O  dyy        
    10      1.064521  1 O  dxx                2     -0.665956  1 O  s          
    14     -0.553233  1 O  dyz               12     -0.540340  1 O  dxz        
    11      0.281204  1 O  dxy                1      0.262851  1 O  s          
    15      0.247771  1 O  dzz        

 Vector   12  Occ=1.800124D-13  E= 1.998834D-13
              MO Center= -5.2D-04, -3.4D-04, -2.6D-04, r^2= 6.4D-01
   Bfn.  Coefficient  Atom+Function         Bfn.  Coefficient  Atom+Function  
  ----- ------------  ---------------      ----- ------------  ---------------
     2     -0.970108  1 O  s                 12      0.894430  1 O  dxz        
    13      0.559661  1 O  dyy               15      0.500847  1 O  dzz        
     6      0.369201  1 O  s                 10     -0.258954  1 O  dxx        
    14      0.246727  1 O  dyz                1      0.143465  1 O  s          
    11     -0.107087  1 O  dxy        

 Vector   13  Occ=7.426921D-17  E= 9.890779D-17
              MO Center= -2.2D-05,  6.0D-04, -2.9D-04, r^2= 6.2D-01
   Bfn.  Coefficient  Atom+Function         Bfn.  Coefficient  Atom+Function  
  ----- ------------  ---------------      ----- ------------  ---------------
    11      0.877481  1 O  dxy               14      0.859161  1 O  dyz        
    10      0.779665  1 O  dxx               12      0.645943  1 O  dxz        
     6     -0.371220  1 O  s                 13     -0.175566  1 O  dyy        
     2     -0.116854  1 O  s                  1      0.067780  1 O  s          
    15      0.065713  1 O  dzz        

 Vector   14  Occ=1.650131D-15  E= 2.175987D-15
              MO Center=  5.5D-04,  9.2D-05, -1.1D-03, r^2= 6.2D-01
   Bfn.  Coefficient  Atom+Function         Bfn.  Coefficient  Atom+Function  
  ----- ------------  ---------------      ----- ------------  ---------------
    14      1.184834  1 O  dyz               11     -1.063833  1 O  dxy        
    12     -0.400382  1 O  dxz               13      0.342359  1 O  dyy        
     6     -0.329966  1 O  s                 10      0.310315  1 O  dxx        
    15     -0.105153  1 O  dzz                2     -0.070037  1 O  s          
     1      0.053765  1 O  s          

 Vector   15  Occ=4.119972D-14  E= 6.524313D-14
              MO Center=  2.3D-04,  1.2D-03,  4.8D-05, r^2= 6.8D-01
   Bfn.  Coefficient  Atom+Function         Bfn.  Coefficient  Atom+Function  
  ----- ------------  ---------------      ----- ------------  ---------------
    15      1.283310  1 O  dzz                6     -1.110156  1 O  s          
    10      0.747967  1 O  dxx               11     -0.461059  1 O  dxy        
     2     -0.296566  1 O  s                 12     -0.297621  1 O  dxz        
     1      0.192660  1 O  s                 14     -0.189349  1 O  dyz        
    13     -0.105375  1 O  dyy        


 Task  times  cpu:     2501.9s     wall:     2717.5s


                                NWChem Input Module
                                -------------------


 Summary of allocated global arrays
-----------------------------------
  No active global arrays



                         GA Statistics for process    0
                         ------------------------------

       create   destroy   get      put      acc     scatter   gather  read&inc
calls:   90       90     2.77e+08 4.17e+05 1.59e+08    0        0        8     
number of processes/call 1.00e+00 1.00e+00 1.00e+00 0.00e+00 0.00e+00
bytes total:             4.02e+11 7.34e+08 2.86e+11 0.00e+00 0.00e+00 6.40e+01
bytes remote:            0.00e+00 0.00e+00 0.00e+00 0.00e+00 0.00e+00 0.00e+00
Max memory consumed for GA by this process: 61200 bytes

MA_summarize_allocated_blocks: starting scan ...
MA_summarize_allocated_blocks: scan completed: 0 heap blocks, 0 stack blocks
MA usage statistics:

	allocation statistics:
					      heap	     stack
					      ----	     -----
	current number of blocks	         0	         0
	maximum number of blocks	        18	        17
	current total bytes		         0	         0
	maximum total bytes		   3210040	  22508664
	maximum total K-bytes		      3211	     22509
	maximum total M-bytes		         4	        23


                                     CITATION
                                     --------
                Please cite the following reference when publishing
                           results obtained with NWChem:

                 M. Valiev, E.J. Bylaska, N. Govind, K. Kowalski,
              T.P. Straatsma, H.J.J. van Dam, D. Wang, J. Nieplocha,
                        E. Apra, T.L. Windus, W.A. de Jong
                 "NWChem: a comprehensive and scalable open-source
                  solution for large scale molecular simulations"
                      Comput. Phys. Commun. 181, 1477 (2010)
                           doi:10.1016/j.cpc.2010.04.018

                                      AUTHORS
                                      -------
          E. Apra, E. J. Bylaska, W. A. de Jong, N. Govind, K. Kowalski,
       T. P. Straatsma, M. Valiev, H. J. J. van Dam, D. Wang, T. L. Windus,
        J. Hammond, J. Autschbach, K. Bhaskaran-Nair, J. Brabec, K. Lopata,
    S. A. Fischer, S. Krishnamoorthy, M. Jacquelin, W. Ma, M. Klemm, O. Villa,
      Y. Chen, V. Anisimov, F. Aquino, S. Hirata, M. T. Hackler, V. Konjkov,
      T. Risthaus, M. Malagoli, A. Marenich, A. Otero-de-la-Roza, J. Mullin,
        P. Nichols, R. Peverati, J. Pittner, Y. Zhao, P.-D. Fan, A. Fonari,
       M. Williamson, R. J. Harrison, J. R. Rehr, M. Dupuis, D. Silverstein,
    D. M. A. Smith, J. Nieplocha, V. Tipparaju, M. Krishnan, B. E. Van Kuiken,
        A. Vazquez-Mayagoitia, L. Jensen, M. Swart, Q. Wu, T. Van Voorhis,
     A. A. Auer, M. Nooijen, L. D. Crosby, E. Brown, G. Cisneros, G. I. Fann,
   H. Fruchtl, J. Garza, K. Hirao, R. A. Kendall, J. A. Nichols, K. Tsemekhman,
    K. Wolinski, J. Anchell, D. E. Bernholdt, P. Borowski, T. Clark, D. Clerc,
   H. Dachsel, M. J. O. Deegan, K. Dyall, D. Elwood, E. Glendening, M. Gutowski,
   A. C. Hess, J. Jaffe, B. G. Johnson, J. Ju, R. Kobayashi, R. Kutteh, Z. Lin,
   R. Littlefield, X. Long, B. Meng, T. Nakajima, S. Niu, L. Pollack, M. Rosing,
   K. Glaesemann, G. Sandrone, M. Stave, H. Taylor, G. Thomas, J. H. van Lenthe,
                               A. T. Wong, Z. Zhang.

 Total times  cpu:     2589.5s     wall:     2811.6s
