 argument  1 = /home/hvandam/nwchem-1-wfn1/QA/tests/wfn1-h2-6-31g-wfn1c14e/input-wf-6-31g-7.138692.nw



============================== echo of input deck ==============================
echo
start wfn1_dat
geometry units au noautoz
  H 0 0 -3.56934600000000000000
  H 0 0  3.56934600000000000000
  symmetry cs
end
basis
  H library 6-31g
end
set wfn1:input_vectors "atomic"
set wfn1:solver "monte-carlo"
set wfn1:print_error F
set wfn1:t_initial 0.1
#set wfn1:corr_expr "wfn1_mx"
set wfn1:corr_expr "wfn1c14"
#
set wfn1:fcd00  0.198826
set wfn1:fcd01  0.294438
set wfn1:fcd11  0.247007
set wfn1:fcd05  0.020225
set wfn1:fcd51  -0.098842
set wfn1:fcd55  -0.201236
#
set wfn1:rcd00  0.884548
set wfn1:rcd01  1.211432
set wfn1:rcd11  0.255064
set wfn1:rcd05  0.988291
set wfn1:rcd51  0.535281
set wfn1:rcd55  0.701049
#
set wfn1:fco00  -0.005884
set wfn1:fco01  0.063203
set wfn1:fco11  0.357171
set wfn1:fco05  0.019518
set wfn1:fco51  0.871725
set wfn1:fco55  1.051801
#
set wfn1:rco00  1.033050
set wfn1:rco01  0.850461
set wfn1:rco11  0.110139
set wfn1:rco05  0.985630
set wfn1:rco51  0.139729
set wfn1:rco55  0.918333
#
set wfn1:t_bath 0.0
set wfn1:maxit  20000
task wfn1 energy
================================================================================


                                         
                                         


              Northwest Computational Chemistry Package (NWChem) 6.8
              ------------------------------------------------------


                    Environmental Molecular Sciences Laboratory
                       Pacific Northwest National Laboratory
                                Richland, WA 99352

                              Copyright (c) 1994-2015
                       Pacific Northwest National Laboratory
                            Battelle Memorial Institute

             NWChem is an open-source computational chemistry package
                        distributed under the terms of the
                      Educational Community License (ECL) 2.0
             A copy of the license is included with this distribution
                              in the LICENSE.TXT file

                                  ACKNOWLEDGMENT
                                  --------------

            This software and its documentation were developed at the
            EMSL at Pacific Northwest National Laboratory, a multiprogram
            national laboratory, operated for the U.S. Department of Energy
            by Battelle under Contract Number DE-AC05-76RL01830. Support
            for this work was provided by the Department of Energy Office
            of Biological and Environmental Research, Office of Basic
            Energy Sciences, and the Office of Advanced Scientific Computing.


           Job information
           ---------------

    hostname        = node023
    program         = /home/hvandam/nwchem-1-wfn1/bin/LINUX64/nwchem
    date            = Thu Jun 17 23:51:02 2021

    compiled        = Sun_Jun_13_23:38:55_2021
    source          = /home/hvandam/nwchem-1-wfn1
    nwchem branch   = Development
    nwchem revision = nwchem_on_git-124-gad72d19fff205e319ffbbf2bca37a04ded6ad57b
    ga revision     = nwchem_on_git-124-gad72d19
    use scalapack   = F
    input           = /home/hvandam/nwchem-1-wfn1/QA/tests/wfn1-h2-6-31g-wfn1c14e/input-wf-6-31g-7.138692.nw
    prefix          = wfn1_dat.
    data base       = ./wfn1_dat.db
    status          = startup
    nproc           =        1
    time left       =     -1s



           Memory information
           ------------------

    heap     =   13107198 doubles =    100.0 Mbytes
    stack    =   13107195 doubles =    100.0 Mbytes
    global   =   26214400 doubles =    200.0 Mbytes (distinct from heap & stack)
    total    =   52428793 doubles =    400.0 Mbytes
    verify   = yes
    hardfail = no 


           Directory information
           ---------------------

  0 permanent = .
  0 scratch   = .




                                NWChem Input Module
                                -------------------


 Turning off AUTOSYM since
 SYMMETRY directive was detected!



                             Geometry "geometry" -> ""
                             -------------------------

 Output coordinates in a.u. (scale by  1.000000000 to convert to a.u.)

  No.       Tag          Charge          X              Y              Z
 ---- ---------------- ---------- -------------- -------------- --------------
    1 H                    1.0000     0.00000000     0.00000000    -3.56934600
    2 H                    1.0000     0.00000000     0.00000000     3.56934600

      Atomic Mass 
      ----------- 

      H                  1.007825


 Effective nuclear repulsion energy (a.u.)       0.1400816844

            Nuclear Dipole moment (a.u.) 
            ----------------------------
        X                 Y               Z
 ---------------- ---------------- ----------------
     0.0000000000     0.0000000000     0.0000000000

      Symmetry information
      --------------------

 Group name             Cs        
 Group number              2
 Group order               2
 No. of unique centers     1

      Symmetry unique atoms

     1


            XYZ format geometry
            -------------------
     2
 geometry
 H                     0.00000000     0.00000000    -1.88881670
 H                     0.00000000     0.00000000     1.88881670

                      Basis "ao basis" -> "" (cartesian)
                      -----
  H (Hydrogen)
  ------------
            Exponent  Coefficients 
       -------------- ---------------------------------------------------------
  1 S  1.87311370E+01  0.033495
  1 S  2.82539370E+00  0.234727
  1 S  6.40121700E-01  0.813757

  2 S  1.61277800E-01  1.000000



 Summary of "ao basis" -> "" (cartesian)
 ------------------------------------------------------------------------------
       Tag                 Description            Shells   Functions and Types
 ---------------- ------------------------------  ------  ---------------------
 H                           6-31g                   2        2   2s



                                NWChem WFN1 Module
                                ------------------



          No. of electrons :     2
           Alpha electrons :     1
            Beta electrons :     1
          Charge           :     0
          Spin multiplicity:     1

 HvD: wfn1_inpdft
 HvD: nquad_task =                     1
 HvD: iangquad   =                     0
 HvD: gridtype   = user      
 HvD: leb        =  T
 HvD: radgrid    = murakn    
 HvD: trunc_neigh=  T
 HvD: lssw       =  T
 HvD: whichssw   = erf1    
 HvD: mxnrad     =                     0
 HvD: mxnang     =                     0
 HVD: wfn1: movecs_in  = atomic                                                                                                                                                                                                                                                          
 HVD: wfn1: movecs_out = ./wfn1_dat.movecs                                                                                                                                                                                                                                               

      Superposition of Atomic Density Guess
      -------------------------------------

 Sum of atomic energies:          -0.99646508

      Non-variational initial energy
      ------------------------------

 Total energy =      -0.682125
 1-e energy   =      -1.276629
 2-e energy   =       0.454423
 HOMO         =      -0.196377
 LUMO         =      -0.185960

 iteration              energy           error
 ---------              ------           -----
         0         -0.98385326        0.020000
         1         -0.98614073        0.020000
         2         -0.98620365        0.020000
         3         -0.98681204        0.020000
         4         -0.98742544        0.020000
         5         -0.98867822        0.020000
         6         -0.98952648        0.020000
         7         -0.99051959        0.020000
         8         -0.99137537        0.020000
         9         -0.99196085        0.020000
        10         -0.99211898        0.020000
        11         -0.99212390        0.020000
        12         -0.99267980        0.020000
        13         -0.99283209        0.020000
        14         -0.99286411        0.020000
        15         -0.99294660        0.020000
        16         -0.99318561        0.020000
        17         -0.99325601        0.020000
        18         -0.99329546        0.020000
        19         -0.99337414        0.020000
        20         -0.99345278        0.020000
        21         -0.99356245        0.020000
        22         -0.99369457        0.020000
        23         -0.99377272        0.020000
        24         -0.99414447        0.020000
        25         -0.99418682        0.020000
        26         -0.99446010        0.020000
        27         -0.99454956        0.020000
        28         -0.99455339        0.020000
        29         -0.99460710        0.020000
        30         -0.99474655        0.020000
        31         -0.99487493        0.020000
        32         -0.99514431        0.020000
        33         -0.99532884        0.020000
        34         -0.99547926        0.020000
        35         -0.99575988        0.020000
        36         -0.99578062        0.020000
        37         -0.99583191        0.020000
        38         -0.99585257        0.020000
        39         -0.99588734        0.019554
        40         -0.99588845        0.018516
        41         -0.99593227        0.016549
        42         -0.99594026        0.015670
        43         -0.99596501        0.013607
        44         -0.99596545        0.012884
        45         -0.99597106        0.011188
        46         -0.99597823        0.011188
        47         -0.99597924        0.010594
        48         -0.99598930        0.010594
        49         -0.99599400        0.007987
        50         -0.99599594        0.006958
        51         -0.99599595        0.005540
        52         -0.99599637        0.005400
        53         -0.99599670        0.005113
        54         -0.99599814        0.004704
        55         -0.99600198        0.004327
        56         -0.99600214        0.004217
        57         -0.99600258        0.002907
        58         -0.99600262        0.002598
        59         -0.99600271        0.002192
        60         -0.99600304        0.002016
        61         -0.99600342        0.002016
        62         -0.99600346        0.001965
        63         -0.99600363        0.001246
        64         -0.99600377        0.001246
        65         -0.99600379        0.001214
        66         -0.99600381        0.000942
        67         -0.99600383        0.000942
        68         -0.99600385        0.000729
        69         -0.99600387        0.000582
        70         -0.99600387        0.000464
        71         -0.99600388        0.000439
        72         -0.99600388        0.000350
        73         -0.99600388        0.000255
        74         -0.99600388        0.000215
        75         -0.99600388        0.000215
        76         -0.99600389        0.000204
        77         -0.99600389        0.000183
        78         -0.99600389        0.000163
        79         -0.99600389        0.000163
        80         -0.99600389        0.000106
        81         -0.99600389        0.000106
        82         -0.99600389        0.000080
        83         -0.99600389        0.000078
        84         -0.99600389        0.000072
        85         -0.99600389        0.000072
        86         -0.99600389        0.000070
        87         -0.99600389        0.000065
        88         -0.99600389        0.000060
        89         -0.99600389        0.000049
        90         -0.99600389        0.000038
        91         -0.99600389        0.000034
        92         -0.99600389        0.000034
        93         -0.99600389        0.000029
        94         -0.99600389        0.000029
        95         -0.99600389        0.000029
        96         -0.99600389        0.000012
        97         -0.99600389        0.000012
        98         -0.99600389        0.000012
        99         -0.99600389        0.000011
       100         -0.99600389        0.000011
       101         -0.99600389        0.000009
       102         -0.99600389        0.000008
       103         -0.99600389        0.000007
       104         -0.99600389        0.000007
       105         -0.99600389        0.000006
       106         -0.99600389        0.000006
       107         -0.99600389        0.000004
       108         -0.99600389        0.000004
       109         -0.99600389        0.000004
       110         -0.99600389        0.000003
       111         -0.99600389        0.000003
       112         -0.99600389        0.000003
       113         -0.99600389        0.000003
       114         -0.99600389        0.000003
       115         -0.99600389        0.000003
       116         -0.99600389        0.000003
       117         -0.99600389        0.000002
       118         -0.99600389        0.000002
       119         -0.99600389        0.000002
       120         -0.99600389        0.000002
       121         -0.99600389        0.000002
       122         -0.99600389        0.000001
       123         -0.99600389        0.000001
       124         -0.99600389        0.000001
       125         -0.99600389        0.000001
       126         -0.99600389        0.000001
       127         -0.99600389        0.000001
       128         -0.99600389        0.000001
       129         -0.99600389        0.000001

 Reached Convergence

 WFN1                     :
 --------------------------
 Total WFN1 energy  =          -0.9960038896
 1-Electron energy  =          -1.2767343427
 2-Electron energy  =           0.3847027828
 Correlation energy =          -0.2440540142
 DFT XC energy      =           0.0000000000
 Entropy energy     =           0.0000000000
 Nuclear energy     =           0.1400816844

 conventional Hartree-Fock:
 --------------------------
 Total SCF energy  =          -0.9259918586
 2-Electron energy =           0.4547148138

                WFN1 Final Natural orbital energies and occupations
                ---------------------------------------------------

              Alpha       Beta            Alpha       Beta  
            --------    --------        --------    --------
       1      0.0000      0.0000          0.5101      0.5101
       2      0.0000      0.0000          0.4899      0.4899
       3      0.0000      0.0000          0.0000      0.0000
       4      0.0000      0.0000          0.0000      0.0000

             WFN1 Final Correlation function energies and occupations
             --------------------------------------------------------

              Alpha       Beta            Alpha       Beta  
            --------    --------        --------    --------
       1      0.0000      0.0000          1.0000      1.0000
       2      0.0000      0.0000          0.0000      0.0000
       3      0.0000      0.0000          0.0000      0.0000
       4      0.0000      0.0000          0.0000      0.0000

                WFN1 Final alpha-alpha 2-matrix occupation numbers
                --------------------------------------------------


 global array: g_momo1[1:4,1:4],  handle: -990 

            1           2           3           4  
       ----------- ----------- ----------- -----------
   1       0.00000     0.00000    -0.00000     0.00000
   2      -0.00000     0.00000    -0.00000    -0.00000
   3      -0.00000     0.00000     0.00000    -0.00000
   4      -0.00000     0.00000    -0.00000    -0.00000

                 WFN1 Final beta-beta 2-matrix occupation numbers
                 ------------------------------------------------


 global array: g_momo2[1:4,1:4],  handle: -989 

            1           2           3           4  
       ----------- ----------- ----------- -----------
   1       0.00000     0.00000    -0.00000     0.00000
   2      -0.00000     0.00000    -0.00000    -0.00000
   3      -0.00000     0.00000     0.00000    -0.00000
   4      -0.00000     0.00000    -0.00000    -0.00000

                  WFN1 Final alpha Correlation Function Analysis
                  ----------------------------------------------


 global array: Ca[1:4,1:4],  handle: -972 

                     1                       2                       3                       4  
       ----------------------- ----------------------- ----------------------- -----------------------
   1       0.64832,   -0.29962     0.61889,   -0.29303    -0.03539,   -0.04762    -0.08004,    0.10526
   2       0.50837,    0.48111    -0.51197,   -0.47558    -0.03170,    0.05137     0.12987,    0.03594
   3      -0.00003,   -0.00015     0.01955,   -0.12431     0.10830,   -0.72148     0.11747,   -0.66190
   4       0.00005,   -0.00011    -0.01022,   -0.16392     0.52611,    0.42871    -0.55705,   -0.44960

                   WFN1 Final beta Correlation Function Analysis
                   ---------------------------------------------


 global array: Cb[1:4,1:4],  handle: -971 

                     1                       2                       3                       4  
       ----------------------- ----------------------- ----------------------- -----------------------
   1       0.64832,   -0.29962     0.61889,   -0.29303    -0.03539,   -0.04762    -0.08004,    0.10526
   2       0.50837,    0.48111    -0.51197,   -0.47558    -0.03170,    0.05137     0.12987,    0.03594
   3      -0.00003,   -0.00015     0.01955,   -0.12431     0.10830,   -0.72148     0.11747,   -0.66190
   4       0.00005,   -0.00011    -0.01022,   -0.16392     0.52611,    0.42871    -0.55705,   -0.44960

                     WFN1 Final Alpha Natural Orbital Analysis
                     -----------------------------------------

 Vector    1  Occ=5.100962D-01  E= 0.000000D+00
              MO Center=  0.0D+00,  0.0D+00,  1.0D-07, r^2= 4.3D+00
   Bfn.  Coefficient  Atom+Function         Bfn.  Coefficient  Atom+Function  
  ----- ------------  ---------------      ----- ------------  ---------------
     2     -0.470025  1 H  s                  4     -0.470025  2 H  s          
     1     -0.299639  1 H  s                  3     -0.299639  2 H  s          

 Vector    2  Occ=4.899038D-01  E= 0.000000D+00
              MO Center=  0.0D+00,  0.0D+00, -1.0D-07, r^2= 4.4D+00
   Bfn.  Coefficient  Atom+Function         Bfn.  Coefficient  Atom+Function  
  ----- ------------  ---------------      ----- ------------  ---------------
     2      0.469491  1 H  s                  4     -0.469491  2 H  s          
     1      0.306537  1 H  s                  3     -0.306537  2 H  s          

 Vector    3  Occ=2.248909D-08  E= 0.000000D+00
              MO Center=  0.0D+00,  0.0D+00,  1.6D-01, r^2= 4.7D+00
   Bfn.  Coefficient  Atom+Function         Bfn.  Coefficient  Atom+Function  
  ----- ------------  ---------------      ----- ------------  ---------------
     3     -0.921963  2 H  s                  1     -0.846793  1 H  s          
     4      0.833067  2 H  s                  2      0.763349  1 H  s          

 Vector    4  Occ=1.451466D-08  E= 0.000000D+00
              MO Center=  0.0D+00,  0.0D+00, -1.6D-01, r^2= 4.8D+00
   Bfn.  Coefficient  Atom+Function         Bfn.  Coefficient  Atom+Function  
  ----- ------------  ---------------      ----- ------------  ---------------
     1     -0.929759  1 H  s                  2      0.861390  1 H  s          
     3      0.855275  2 H  s                  4     -0.794163  2 H  s          


                     WFN1 Final Beta Natural Orbital Analysis
                     ----------------------------------------

 Vector    1  Occ=5.100962D-01  E= 0.000000D+00
              MO Center=  0.0D+00,  0.0D+00,  1.0D-07, r^2= 4.3D+00
   Bfn.  Coefficient  Atom+Function         Bfn.  Coefficient  Atom+Function  
  ----- ------------  ---------------      ----- ------------  ---------------
     2     -0.470025  1 H  s                  4     -0.470025  2 H  s          
     1     -0.299639  1 H  s                  3     -0.299639  2 H  s          

 Vector    2  Occ=4.899038D-01  E= 0.000000D+00
              MO Center=  0.0D+00,  0.0D+00, -1.0D-07, r^2= 4.4D+00
   Bfn.  Coefficient  Atom+Function         Bfn.  Coefficient  Atom+Function  
  ----- ------------  ---------------      ----- ------------  ---------------
     2      0.469491  1 H  s                  4     -0.469491  2 H  s          
     1      0.306537  1 H  s                  3     -0.306537  2 H  s          

 Vector    3  Occ=2.248909D-08  E= 0.000000D+00
              MO Center=  0.0D+00,  0.0D+00,  1.6D-01, r^2= 4.7D+00
   Bfn.  Coefficient  Atom+Function         Bfn.  Coefficient  Atom+Function  
  ----- ------------  ---------------      ----- ------------  ---------------
     3     -0.921963  2 H  s                  1     -0.846793  1 H  s          
     4      0.833067  2 H  s                  2      0.763349  1 H  s          

 Vector    4  Occ=1.451466D-08  E= 0.000000D+00
              MO Center=  0.0D+00,  0.0D+00, -1.6D-01, r^2= 4.8D+00
   Bfn.  Coefficient  Atom+Function         Bfn.  Coefficient  Atom+Function  
  ----- ------------  ---------------      ----- ------------  ---------------
     1     -0.929759  1 H  s                  2      0.861390  1 H  s          
     3      0.855275  2 H  s                  4     -0.794163  2 H  s          


 Task  times  cpu:      185.7s     wall:      210.1s
 Summary of allocated global arrays
-----------------------------------
  No active global arrays



                         GA Statistics for process    0
                         ------------------------------

       create   destroy   get      put      acc     scatter   gather  read&inc
calls:   61       61     4.79e+07 2.12e+05 1.63e+05    0        0       11     
number of processes/call 1.00e+00 1.00e+00 1.00e+00 0.00e+00 0.00e+00
bytes total:             6.17e+09 3.86e+07 2.71e+07 0.00e+00 0.00e+00 8.80e+01
bytes remote:            0.00e+00 0.00e+00 0.00e+00 0.00e+00 0.00e+00 0.00e+00
Max memory consumed for GA by this process: 12160 bytes
MA_summarize_allocated_blocks: starting scan ...
MA_summarize_allocated_blocks: scan completed: 0 heap blocks, 0 stack blocks
MA usage statistics:

	allocation statistics:
					      heap	     stack
					      ----	     -----
	current number of blocks	         0	         0
	maximum number of blocks	        19	        17
	current total bytes		         0	         0
	maximum total bytes		   3204344	  22508664
	maximum total K-bytes		      3205	     22509
	maximum total M-bytes		         4	        23


                                NWChem Input Module
                                -------------------





                                     CITATION
                                     --------
                Please cite the following reference when publishing
                           results obtained with NWChem:

                 M. Valiev, E.J. Bylaska, N. Govind, K. Kowalski,
              T.P. Straatsma, H.J.J. van Dam, D. Wang, J. Nieplocha,
                        E. Apra, T.L. Windus, W.A. de Jong
                 "NWChem: a comprehensive and scalable open-source
                  solution for large scale molecular simulations"
                      Comput. Phys. Commun. 181, 1477 (2010)
                           doi:10.1016/j.cpc.2010.04.018

                                      AUTHORS
                                      -------
          E. Apra, E. J. Bylaska, W. A. de Jong, N. Govind, K. Kowalski,
       T. P. Straatsma, M. Valiev, H. J. J. van Dam, D. Wang, T. L. Windus,
        J. Hammond, J. Autschbach, K. Bhaskaran-Nair, J. Brabec, K. Lopata,
    S. A. Fischer, S. Krishnamoorthy, M. Jacquelin, W. Ma, M. Klemm, O. Villa,
      Y. Chen, V. Anisimov, F. Aquino, S. Hirata, M. T. Hackler, V. Konjkov,
      T. Risthaus, M. Malagoli, A. Marenich, A. Otero-de-la-Roza, J. Mullin,
        P. Nichols, R. Peverati, J. Pittner, Y. Zhao, P.-D. Fan, A. Fonari,
       M. Williamson, R. J. Harrison, J. R. Rehr, M. Dupuis, D. Silverstein,
    D. M. A. Smith, J. Nieplocha, V. Tipparaju, M. Krishnan, B. E. Van Kuiken,
        A. Vazquez-Mayagoitia, L. Jensen, M. Swart, Q. Wu, T. Van Voorhis,
     A. A. Auer, M. Nooijen, L. D. Crosby, E. Brown, G. Cisneros, G. I. Fann,
   H. Fruchtl, J. Garza, K. Hirao, R. A. Kendall, J. A. Nichols, K. Tsemekhman,
    K. Wolinski, J. Anchell, D. E. Bernholdt, P. Borowski, T. Clark, D. Clerc,
   H. Dachsel, M. J. O. Deegan, K. Dyall, D. Elwood, E. Glendening, M. Gutowski,
   A. C. Hess, J. Jaffe, B. G. Johnson, J. Ju, R. Kobayashi, R. Kutteh, Z. Lin,
   R. Littlefield, X. Long, B. Meng, T. Nakajima, S. Niu, L. Pollack, M. Rosing,
   K. Glaesemann, G. Sandrone, M. Stave, H. Taylor, G. Thomas, J. H. van Lenthe,
                               A. T. Wong, Z. Zhang.

 Total times  cpu:      185.8s     wall:      210.1s
        0.510096        0.489904        0.000000        0.000000        0.510096        0.489904        0.000000        0.000000