 argument  1 = /home/hvandam/nwchem-1-wfn1/QA/tests/wfn1-h2-6-31g-wfn1c14e/input-wf-6-31g-5.638692.nw



============================== echo of input deck ==============================
echo
start wfn1_dat
geometry units au noautoz
  H 0 0 -2.81934600000000000000
  H 0 0  2.81934600000000000000
  symmetry cs
end
basis
  H library 6-31g
end
set wfn1:input_vectors "atomic"
set wfn1:solver "monte-carlo"
set wfn1:print_error F
set wfn1:t_initial 0.1
#set wfn1:corr_expr "wfn1_mx"
set wfn1:corr_expr "wfn1c14"
#
set wfn1:fcd00  0.198826
set wfn1:fcd01  0.294438
set wfn1:fcd11  0.247007
set wfn1:fcd05  0.020225
set wfn1:fcd51  -0.098842
set wfn1:fcd55  -0.201236
#
set wfn1:rcd00  0.884548
set wfn1:rcd01  1.211432
set wfn1:rcd11  0.255064
set wfn1:rcd05  0.988291
set wfn1:rcd51  0.535281
set wfn1:rcd55  0.701049
#
set wfn1:fco00  -0.005884
set wfn1:fco01  0.063203
set wfn1:fco11  0.357171
set wfn1:fco05  0.019518
set wfn1:fco51  0.871725
set wfn1:fco55  1.051801
#
set wfn1:rco00  1.033050
set wfn1:rco01  0.850461
set wfn1:rco11  0.110139
set wfn1:rco05  0.985630
set wfn1:rco51  0.139729
set wfn1:rco55  0.918333
#
set wfn1:t_bath 0.0
set wfn1:maxit  20000
task wfn1 energy
================================================================================


                                         
                                         


              Northwest Computational Chemistry Package (NWChem) 6.8
              ------------------------------------------------------


                    Environmental Molecular Sciences Laboratory
                       Pacific Northwest National Laboratory
                                Richland, WA 99352

                              Copyright (c) 1994-2015
                       Pacific Northwest National Laboratory
                            Battelle Memorial Institute

             NWChem is an open-source computational chemistry package
                        distributed under the terms of the
                      Educational Community License (ECL) 2.0
             A copy of the license is included with this distribution
                              in the LICENSE.TXT file

                                  ACKNOWLEDGMENT
                                  --------------

            This software and its documentation were developed at the
            EMSL at Pacific Northwest National Laboratory, a multiprogram
            national laboratory, operated for the U.S. Department of Energy
            by Battelle under Contract Number DE-AC05-76RL01830. Support
            for this work was provided by the Department of Energy Office
            of Biological and Environmental Research, Office of Basic
            Energy Sciences, and the Office of Advanced Scientific Computing.


           Job information
           ---------------

    hostname        = node023
    program         = /home/hvandam/nwchem-1-wfn1/bin/LINUX64/nwchem
    date            = Thu Jun 17 23:50:57 2021

    compiled        = Sun_Jun_13_23:38:55_2021
    source          = /home/hvandam/nwchem-1-wfn1
    nwchem branch   = Development
    nwchem revision = nwchem_on_git-124-gad72d19fff205e319ffbbf2bca37a04ded6ad57b
    ga revision     = nwchem_on_git-124-gad72d19
    use scalapack   = F
    input           = /home/hvandam/nwchem-1-wfn1/QA/tests/wfn1-h2-6-31g-wfn1c14e/input-wf-6-31g-5.638692.nw
    prefix          = wfn1_dat.
    data base       = ./wfn1_dat.db
    status          = startup
    nproc           =        1
    time left       =     -1s



           Memory information
           ------------------

    heap     =   13107196 doubles =    100.0 Mbytes
    stack    =   13107201 doubles =    100.0 Mbytes
    global   =   26214400 doubles =    200.0 Mbytes (distinct from heap & stack)
    total    =   52428797 doubles =    400.0 Mbytes
    verify   = yes
    hardfail = no 


           Directory information
           ---------------------

  0 permanent = .
  0 scratch   = .




                                NWChem Input Module
                                -------------------


 Turning off AUTOSYM since
 SYMMETRY directive was detected!



                             Geometry "geometry" -> ""
                             -------------------------

 Output coordinates in a.u. (scale by  1.000000000 to convert to a.u.)

  No.       Tag          Charge          X              Y              Z
 ---- ---------------- ---------- -------------- -------------- --------------
    1 H                    1.0000     0.00000000     0.00000000    -2.81934600
    2 H                    1.0000     0.00000000     0.00000000     2.81934600

      Atomic Mass 
      ----------- 

      H                  1.007825


 Effective nuclear repulsion energy (a.u.)       0.1773460937

            Nuclear Dipole moment (a.u.) 
            ----------------------------
        X                 Y               Z
 ---------------- ---------------- ----------------
     0.0000000000     0.0000000000     0.0000000000

      Symmetry information
      --------------------

 Group name             Cs        
 Group number              2
 Group order               2
 No. of unique centers     1

      Symmetry unique atoms

     1


            XYZ format geometry
            -------------------
     2
 geometry
 H                     0.00000000     0.00000000    -1.49193376
 H                     0.00000000     0.00000000     1.49193376

                      Basis "ao basis" -> "" (cartesian)
                      -----
  H (Hydrogen)
  ------------
            Exponent  Coefficients 
       -------------- ---------------------------------------------------------
  1 S  1.87311370E+01  0.033495
  1 S  2.82539370E+00  0.234727
  1 S  6.40121700E-01  0.813757

  2 S  1.61277800E-01  1.000000



 Summary of "ao basis" -> "" (cartesian)
 ------------------------------------------------------------------------------
       Tag                 Description            Shells   Functions and Types
 ---------------- ------------------------------  ------  ---------------------
 H                           6-31g                   2        2   2s



                                NWChem WFN1 Module
                                ------------------



          No. of electrons :     2
           Alpha electrons :     1
            Beta electrons :     1
          Charge           :     0
          Spin multiplicity:     1

 HvD: wfn1_inpdft
 HvD: nquad_task =                     1
 HvD: iangquad   =                     0
 HvD: gridtype   = user      
 HvD: leb        =  T
 HvD: radgrid    = murakn    
 HvD: trunc_neigh=  T
 HvD: lssw       =  T
 HvD: whichssw   = erf1    
 HvD: mxnrad     =                     0
 HvD: mxnang     =                     0
 HVD: wfn1: movecs_in  = atomic                                                                                                                                                                                                                                                          
 HVD: wfn1: movecs_out = ./wfn1_dat.movecs                                                                                                                                                                                                                                               

      Superposition of Atomic Density Guess
      -------------------------------------

 Sum of atomic energies:          -0.99646508

      Non-variational initial energy
      ------------------------------

 Total energy =      -0.682524
 1-e energy   =      -1.351157
 2-e energy   =       0.491287
 HOMO         =      -0.210182
 LUMO         =      -0.171354

 iteration              energy           error
 ---------              ------           -----
         0         -0.98328658        0.020000
         1         -0.98415749        0.020000
         2         -0.98631637        0.020000
         3         -0.98681688        0.020000
         4         -0.98775113        0.020000
         5         -0.98929098        0.020000
         6         -0.98984409        0.020000
         7         -0.99007002        0.020000
         8         -0.99064207        0.020000
         9         -0.99187424        0.020000
        10         -0.99224440        0.020000
        11         -0.99269737        0.020000
        12         -0.99321936        0.020000
        13         -0.99386859        0.020000
        14         -0.99417848        0.020000
        15         -0.99433609        0.020000
        16         -0.99437112        0.020000
        17         -0.99443632        0.020000
        18         -0.99471994        0.020000
        19         -0.99498427        0.020000
        20         -0.99531140        0.020000
        21         -0.99536512        0.020000
        22         -0.99539959        0.020000
        23         -0.99543344        0.020000
        24         -0.99549930        0.020000
        25         -0.99552273        0.020000
        26         -0.99554580        0.017199
        27         -0.99554961        0.017199
        28         -0.99557030        0.016286
        29         -0.99560503        0.015030
        30         -0.99560784        0.012679
        31         -0.99560996        0.006936
        32         -0.99561022        0.005851
        33         -0.99561028        0.005851
        34         -0.99561211        0.005540
        35         -0.99561288        0.005540
        36         -0.99561459        0.005417
        37         -0.99561542        0.005146
        38         -0.99561887        0.005146
        39         -0.99561916        0.004468
        40         -0.99561962        0.002524
        41         -0.99561979        0.001790
        42         -0.99561982        0.001745
        43         -0.99561988        0.001745
        44         -0.99561996        0.001312
        45         -0.99561998        0.001210
        46         -0.99562001        0.001210
        47         -0.99562010        0.001210
        48         -0.99562014        0.000859
        49         -0.99562017        0.000842
        50         -0.99562019        0.000580
        51         -0.99562020        0.000378
        52         -0.99562020        0.000184
        53         -0.99562020        0.000179
        54         -0.99562020        0.000104
        55         -0.99562020        0.000101
        56         -0.99562020        0.000078
        57         -0.99562020        0.000078
        58         -0.99562020        0.000066
        59         -0.99562020        0.000065
        60         -0.99562020        0.000047
        61         -0.99562020        0.000046
        62         -0.99562020        0.000044
        63         -0.99562020        0.000037
        64         -0.99562020        0.000031
        65         -0.99562020        0.000029
        66         -0.99562020        0.000029
        67         -0.99562020        0.000024
        68         -0.99562020        0.000023
        69         -0.99562020        0.000019
        70         -0.99562020        0.000018
        71         -0.99562020        0.000015
        72         -0.99562020        0.000014
        73         -0.99562020        0.000013
        74         -0.99562020        0.000012
        75         -0.99562020        0.000012
        76         -0.99562020        0.000012
        77         -0.99562020        0.000012
        78         -0.99562020        0.000012
        79         -0.99562020        0.000008
        80         -0.99562020        0.000007
        81         -0.99562020        0.000007
        82         -0.99562020        0.000007
        83         -0.99562020        0.000003
        84         -0.99562020        0.000003
        85         -0.99562020        0.000002
        86         -0.99562020        0.000002
        87         -0.99562020        0.000002
        88         -0.99562020        0.000001
        89         -0.99562020        0.000001
        90         -0.99562020        0.000001
        91         -0.99562020        0.000001
        92         -0.99562020        0.000001
        93         -0.99562020        0.000001
        94         -0.99562020        0.000001

 Reached Convergence

 WFN1                     :
 --------------------------
 Total WFN1 energy  =          -0.9956202004
 1-Electron energy  =          -1.3526295260
 2-Electron energy  =           0.4026894757
 Correlation energy =          -0.2230262438
 DFT XC energy      =           0.0000000000
 Entropy energy     =           0.0000000000
 Nuclear energy     =           0.1773460937

 conventional Hartree-Fock:
 --------------------------
 Total SCF energy  =          -0.9079026507
 2-Electron energy =           0.4904070254

                WFN1 Final Natural orbital energies and occupations
                ---------------------------------------------------

              Alpha       Beta            Alpha       Beta  
            --------    --------        --------    --------
       1      0.0000      0.0000          0.5472      0.5472
       2      0.0000      0.0000          0.4528      0.4528
       3      0.0000      0.0000          0.0000      0.0000
       4      0.0000      0.0000          0.0000      0.0000

             WFN1 Final Correlation function energies and occupations
             --------------------------------------------------------

              Alpha       Beta            Alpha       Beta  
            --------    --------        --------    --------
       1      0.0000      0.0000          1.0000      1.0000
       2      0.0000      0.0000          0.0000      0.0000
       3      0.0000      0.0000          0.0000      0.0000
       4      0.0000      0.0000          0.0000      0.0000

                WFN1 Final alpha-alpha 2-matrix occupation numbers
                --------------------------------------------------


 global array: g_momo1[1:4,1:4],  handle: -990 

            1           2           3           4  
       ----------- ----------- ----------- -----------
   1       0.00000     0.00000     0.00000    -0.00000
   2       0.00000    -0.00000     0.00000    -0.00000
   3       0.00000     0.00000     0.00000     0.00000
   4       0.00000     0.00000     0.00000     0.00000

                 WFN1 Final beta-beta 2-matrix occupation numbers
                 ------------------------------------------------


 global array: g_momo2[1:4,1:4],  handle: -989 

            1           2           3           4  
       ----------- ----------- ----------- -----------
   1       0.00000     0.00000     0.00000    -0.00000
   2       0.00000    -0.00000     0.00000    -0.00000
   3       0.00000     0.00000     0.00000     0.00000
   4       0.00000     0.00000     0.00000     0.00000

                  WFN1 Final alpha Correlation Function Analysis
                  ----------------------------------------------


 global array: Ca[1:4,1:4],  handle: -976 

                     1                       2                       3                       4  
       ----------------------- ----------------------- ----------------------- -----------------------
   1      -0.40445,   -0.61936    -0.36438,   -0.56359     0.02255,    0.02036     0.02744,   -0.02726
   2       0.14213,   -0.65774    -0.15908,    0.72040    -0.00152,   -0.03315    -0.04243,   -0.00070
   3      -0.00023,   -0.00002    -0.04408,    0.01547    -0.87805,   -0.02169     0.47570,    0.00949
   4      -0.00002,    0.00012     0.05517,    0.00975     0.16865,   -0.44508     0.31215,   -0.82029

                   WFN1 Final beta Correlation Function Analysis
                   ---------------------------------------------


 global array: Cb[1:4,1:4],  handle: -975 

                     1                       2                       3                       4  
       ----------------------- ----------------------- ----------------------- -----------------------
   1      -0.40445,   -0.61936    -0.36438,   -0.56359     0.02255,    0.02036     0.02744,   -0.02726
   2       0.14213,   -0.65774    -0.15908,    0.72040    -0.00152,   -0.03315    -0.04243,   -0.00070
   3      -0.00023,   -0.00002    -0.04408,    0.01547    -0.87805,   -0.02169     0.47570,    0.00949
   4      -0.00002,    0.00012     0.05517,    0.00975     0.16865,   -0.44508     0.31215,   -0.82029

                     WFN1 Final Alpha Natural Orbital Analysis
                     -----------------------------------------

 Vector    1  Occ=5.471817D-01  E= 0.000000D+00
              MO Center=  0.0D+00,  0.0D+00,  6.9D-07, r^2= 3.0D+00
   Bfn.  Coefficient  Atom+Function         Bfn.  Coefficient  Atom+Function  
  ----- ------------  ---------------      ----- ------------  ---------------
     2     -0.465180  1 H  s                  4     -0.465180  2 H  s          
     1     -0.292038  1 H  s                  3     -0.292038  2 H  s          

 Vector    2  Occ=4.528183D-01  E= 0.000000D+00
              MO Center=  0.0D+00,  0.0D+00, -6.6D-07, r^2= 3.1D+00
   Bfn.  Coefficient  Atom+Function         Bfn.  Coefficient  Atom+Function  
  ----- ------------  ---------------      ----- ------------  ---------------
     2      0.475268  1 H  s                  4     -0.475268  2 H  s          
     1      0.313609  1 H  s                  3     -0.313609  2 H  s          

 Vector    3  Occ=5.142676D-08  E= 0.000000D+00
              MO Center=  0.0D+00,  0.0D+00, -1.2D-02, r^2= 3.2D+00
   Bfn.  Coefficient  Atom+Function         Bfn.  Coefficient  Atom+Function  
  ----- ------------  ---------------      ----- ------------  ---------------
     1      0.880821  1 H  s                  3      0.873536  2 H  s          
     2     -0.763295  1 H  s                  4     -0.756240  2 H  s          

 Vector    4  Occ=1.504530D-08  E= 0.000000D+00
              MO Center=  0.0D+00,  0.0D+00,  1.2D-02, r^2= 3.7D+00
   Bfn.  Coefficient  Atom+Function         Bfn.  Coefficient  Atom+Function  
  ----- ------------  ---------------      ----- ------------  ---------------
     3      0.908510  2 H  s                  1     -0.901448  1 H  s          
     4     -0.879395  2 H  s                  2      0.873279  1 H  s          


                     WFN1 Final Beta Natural Orbital Analysis
                     ----------------------------------------

 Vector    1  Occ=5.471817D-01  E= 0.000000D+00
              MO Center=  0.0D+00,  0.0D+00,  6.9D-07, r^2= 3.0D+00
   Bfn.  Coefficient  Atom+Function         Bfn.  Coefficient  Atom+Function  
  ----- ------------  ---------------      ----- ------------  ---------------
     2     -0.465180  1 H  s                  4     -0.465180  2 H  s          
     1     -0.292038  1 H  s                  3     -0.292038  2 H  s          

 Vector    2  Occ=4.528183D-01  E= 0.000000D+00
              MO Center=  0.0D+00,  0.0D+00, -6.6D-07, r^2= 3.1D+00
   Bfn.  Coefficient  Atom+Function         Bfn.  Coefficient  Atom+Function  
  ----- ------------  ---------------      ----- ------------  ---------------
     2      0.475268  1 H  s                  4     -0.475268  2 H  s          
     1      0.313609  1 H  s                  3     -0.313609  2 H  s          

 Vector    3  Occ=5.142676D-08  E= 0.000000D+00
              MO Center=  0.0D+00,  0.0D+00, -1.2D-02, r^2= 3.2D+00
   Bfn.  Coefficient  Atom+Function         Bfn.  Coefficient  Atom+Function  
  ----- ------------  ---------------      ----- ------------  ---------------
     1      0.880821  1 H  s                  3      0.873536  2 H  s          
     2     -0.763295  1 H  s                  4     -0.756240  2 H  s          

 Vector    4  Occ=1.504530D-08  E= 0.000000D+00
              MO Center=  0.0D+00,  0.0D+00,  1.2D-02, r^2= 3.7D+00
   Bfn.  Coefficient  Atom+Function         Bfn.  Coefficient  Atom+Function  
  ----- ------------  ---------------      ----- ------------  ---------------
     3      0.908510  2 H  s                  1     -0.901448  1 H  s          
     4     -0.879395  2 H  s                  2      0.873279  1 H  s          


 Task  times  cpu:      187.3s     wall:      210.8s
 Summary of allocated global arrays
-----------------------------------
  No active global arrays



                         GA Statistics for process    0
                         ------------------------------

       create   destroy   get      put      acc     scatter   gather  read&inc
calls:   61       61     4.60e+07 2.04e+05 1.57e+05    0        0       11     
number of processes/call 1.00e+00 1.00e+00 1.00e+00 0.00e+00 0.00e+00
bytes total:             5.93e+09 3.70e+07 2.61e+07 0.00e+00 0.00e+00 8.80e+01
bytes remote:            0.00e+00 0.00e+00 0.00e+00 0.00e+00 0.00e+00 0.00e+00
Max memory consumed for GA by this process: 12160 bytes
MA_summarize_allocated_blocks: starting scan ...
MA_summarize_allocated_blocks: scan completed: 0 heap blocks, 0 stack blocks
MA usage statistics:

	allocation statistics:
					      heap	     stack
					      ----	     -----
	current number of blocks	         0	         0
	maximum number of blocks	        19	        17
	current total bytes		         0	         0
	maximum total bytes		   3204360	  22508648
	maximum total K-bytes		      3205	     22509
	maximum total M-bytes		         4	        23


                                NWChem Input Module
                                -------------------





                                     CITATION
                                     --------
                Please cite the following reference when publishing
                           results obtained with NWChem:

                 M. Valiev, E.J. Bylaska, N. Govind, K. Kowalski,
              T.P. Straatsma, H.J.J. van Dam, D. Wang, J. Nieplocha,
                        E. Apra, T.L. Windus, W.A. de Jong
                 "NWChem: a comprehensive and scalable open-source
                  solution for large scale molecular simulations"
                      Comput. Phys. Commun. 181, 1477 (2010)
                           doi:10.1016/j.cpc.2010.04.018

                                      AUTHORS
                                      -------
          E. Apra, E. J. Bylaska, W. A. de Jong, N. Govind, K. Kowalski,
       T. P. Straatsma, M. Valiev, H. J. J. van Dam, D. Wang, T. L. Windus,
        J. Hammond, J. Autschbach, K. Bhaskaran-Nair, J. Brabec, K. Lopata,
    S. A. Fischer, S. Krishnamoorthy, M. Jacquelin, W. Ma, M. Klemm, O. Villa,
      Y. Chen, V. Anisimov, F. Aquino, S. Hirata, M. T. Hackler, V. Konjkov,
      T. Risthaus, M. Malagoli, A. Marenich, A. Otero-de-la-Roza, J. Mullin,
        P. Nichols, R. Peverati, J. Pittner, Y. Zhao, P.-D. Fan, A. Fonari,
       M. Williamson, R. J. Harrison, J. R. Rehr, M. Dupuis, D. Silverstein,
    D. M. A. Smith, J. Nieplocha, V. Tipparaju, M. Krishnan, B. E. Van Kuiken,
        A. Vazquez-Mayagoitia, L. Jensen, M. Swart, Q. Wu, T. Van Voorhis,
     A. A. Auer, M. Nooijen, L. D. Crosby, E. Brown, G. Cisneros, G. I. Fann,
   H. Fruchtl, J. Garza, K. Hirao, R. A. Kendall, J. A. Nichols, K. Tsemekhman,
    K. Wolinski, J. Anchell, D. E. Bernholdt, P. Borowski, T. Clark, D. Clerc,
   H. Dachsel, M. J. O. Deegan, K. Dyall, D. Elwood, E. Glendening, M. Gutowski,
   A. C. Hess, J. Jaffe, B. G. Johnson, J. Ju, R. Kobayashi, R. Kutteh, Z. Lin,
   R. Littlefield, X. Long, B. Meng, T. Nakajima, S. Niu, L. Pollack, M. Rosing,
   K. Glaesemann, G. Sandrone, M. Stave, H. Taylor, G. Thomas, J. H. van Lenthe,
                               A. T. Wong, Z. Zhang.

 Total times  cpu:      187.3s     wall:      210.9s
        0.547182        0.452818        0.000000        0.000000        0.547182        0.452818        0.000000        0.000000