 argument  1 = input-mc-6-31g.nw



============================== echo of input deck ==============================
echo
start mcscf_dat
geometry units au noautoz
  H 0 0 -.56934600000000000000
  H 0 0  .56934600000000000000
  symmetry cs
end
basis
  H library 6-31g
end
mcscf
  active       4
  actelec      2
  multiplicity 1
end
task mcscf
================================================================================


                                         
                                         


              Northwest Computational Chemistry Package (NWChem) 6.8
              ------------------------------------------------------


                    Environmental Molecular Sciences Laboratory
                       Pacific Northwest National Laboratory
                                Richland, WA 99352

                              Copyright (c) 1994-2015
                       Pacific Northwest National Laboratory
                            Battelle Memorial Institute

             NWChem is an open-source computational chemistry package
                        distributed under the terms of the
                      Educational Community License (ECL) 2.0
             A copy of the license is included with this distribution
                              in the LICENSE.TXT file

                                  ACKNOWLEDGMENT
                                  --------------

            This software and its documentation were developed at the
            EMSL at Pacific Northwest National Laboratory, a multiprogram
            national laboratory, operated for the U.S. Department of Energy
            by Battelle under Contract Number DE-AC05-76RL01830. Support
            for this work was provided by the Department of Energy Office
            of Biological and Environmental Research, Office of Basic
            Energy Sciences, and the Office of Advanced Scientific Computing.


           Job information
           ---------------

    hostname        = erato
    program         = /home/hvandam/nwchem-1-wfn1/bin/LINUX64/nwchem
    date            = Tue May 11 23:45:02 2021

    compiled        = Sat_May_01_23:14:16_2021
    source          = /home/hvandam/nwchem-1-wfn1
    nwchem branch   = Development
    nwchem revision = nwchem_on_git-124-gad72d19fff205e319ffbbf2bca37a04ded6ad57b
    ga revision     = nwchem_on_git-124-gad72d19
    use scalapack   = F
    input           = input-mc-6-31g.nw
    prefix          = mcscf_dat.
    data base       = ./mcscf_dat.db
    status          = startup
    nproc           =        1
    time left       =     -1s



           Memory information
           ------------------

    heap     =   13107198 doubles =    100.0 Mbytes
    stack    =   13107195 doubles =    100.0 Mbytes
    global   =   26214400 doubles =    200.0 Mbytes (distinct from heap & stack)
    total    =   52428793 doubles =    400.0 Mbytes
    verify   = yes
    hardfail = no 


           Directory information
           ---------------------

  0 permanent = .
  0 scratch   = .




                                NWChem Input Module
                                -------------------


 Turning off AUTOSYM since
 SYMMETRY directive was detected!



                             Geometry "geometry" -> ""
                             -------------------------

 Output coordinates in a.u. (scale by  1.000000000 to convert to a.u.)

  No.       Tag          Charge          X              Y              Z
 ---- ---------------- ---------- -------------- -------------- --------------
    1 H                    1.0000     0.00000000     0.00000000    -0.56934600
    2 H                    1.0000     0.00000000     0.00000000     0.56934600

      Atomic Mass 
      ----------- 

      H                  1.007825


 Effective nuclear repulsion energy (a.u.)       0.8782006021

            Nuclear Dipole moment (a.u.) 
            ----------------------------
        X                 Y               Z
 ---------------- ---------------- ----------------
     0.0000000000     0.0000000000     0.0000000000

      Symmetry information
      --------------------

 Group name             Cs        
 Group number              2
 Group order               2
 No. of unique centers     1

      Symmetry unique atoms

     1


            XYZ format geometry
            -------------------
     2
 geometry
 H                     0.00000000     0.00000000    -0.30128495
 H                     0.00000000     0.00000000     0.30128495

 ==============================================================================
                                internuclear distances
 ------------------------------------------------------------------------------
       center one      |      center two      | atomic units |       a.u.
 ------------------------------------------------------------------------------
    2 H                |   1 H                |     1.13869  |     1.13869
 ------------------------------------------------------------------------------
                         number of included internuclear distances:          1
 ==============================================================================



                      Basis "ao basis" -> "" (cartesian)
                      -----
  H (Hydrogen)
  ------------
            Exponent  Coefficients 
       -------------- ---------------------------------------------------------
  1 S  1.87311370E+01  0.033495
  1 S  2.82539370E+00  0.234727
  1 S  6.40121700E-01  0.813757

  2 S  1.61277800E-01  1.000000



 Summary of "ao basis" -> "" (cartesian)
 ------------------------------------------------------------------------------
       Tag                 Description            Shells   Functions and Types
 ---------------- ------------------------------  ------  ---------------------
 H                           6-31g                   2        2   2s


 HVD: aft getinfo: nbf  =                    4
 HVD: aft getinfo: ncld =                    0
 HVD: aft getinfo: nact =                    4

                            NWChem Direct MCSCF Module
                            --------------------------


     -----------------------------------
       Basis functions:              4
       Inactive shells:              0
       Active shells:                4
       Active electrons:             2
       Symmetry:                    a'      
       Multiplicity:                 1
       Orbital rotations:            0
     -----------------------------------

     -----------------------------------
       E2 extrapolation:             F
       Conjugacy:                    T
       Micro CI relax:               T
       Canonical orbitals:           T
       Maximum iterations:          20
       Converge threshold:    1.00E-04
       Conjugacy resets:            20
       Initial levelshift:        0.10
     -----------------------------------

      Superposition of Atomic Density Guess
      -------------------------------------

 Sum of atomic energies:          -0.99646508

 #quartets = 3.700D+01 #integrals = 3.700D+01 #direct =  0.0% #cached =100.0%


 Integral file          = ./mcscf_dat.aoints.0
 Record size in doubles =    65536    No. of integs per rec  =    43688
 Max. records in memory =        2    Max. records in file   =  4162059
 No. of bits per label  =        8    No. of bits per value  =       64


      Non-variational initial energy
      ------------------------------

 Total energy =      -0.836316
 1-e energy   =      -2.370161
 2-e energy   =       0.655645
 HOMO         =      -0.656942
 LUMO         =       0.212074


   input molecular orbitals = atomic
  output molecular orbtials = ./mcscf_dat.movecs

 HvD: mcscf_getmovecs

 global array: MO vectors[1:4,1:4],  handle: -1000 

            1           2           3           4  
       ----------- ----------- ----------- -----------
   1       0.33132     0.14701     0.71249    -1.26498
   2       0.25356     2.07639    -0.67111     1.57381
   3       0.33132    -0.14701     0.71249     1.26498
   4       0.25356    -2.07639    -0.67111    -1.57381
 HvD: sym_movecs_adapt

 global array: MO vectors[1:4,1:4],  handle: -1000 

            1           2           3           4  
       ----------- ----------- ----------- -----------
   1       0.33132     0.14701     0.71249    -1.26498
   2       0.25356     2.07639    -0.67111     1.57381
   3       0.33132    -0.14701     0.71249     1.26498
   4       0.25356    -2.07639    -0.67111    -1.57381
       No. of determinants:            16

 HVD: 1: nclosed =                     0
 HVD: 1: nact    =                     4

  Starting Orbital Energies
    -0.656942     0.659460     0.212074     1.493075

  Orbital Symmetry Irreps
a'   a'   a"   a"  
 HVD: 2: nact    =                     4



          %%%%% MacroIteration   1 %%%%%

 HVD: 3: nact    =                     4
 HVD: 4: nact    =                     4
 HVD: A: nact =                     4
 HVD: B: nact =                     4
 HVD: C: nact =                     4
 HVD: D: nact =                     4

          Number of sigma calls:        6
                       o<<<<< (aa):             0.00
                       o<<<<< (bb):             0.00
                       o<<<<< (ab):             0.00
                       o<<<<< (total)           0.00
                       o<<<<< (aa) ff           0.00
                       o<<<<< (aa) gop          0.00
                       o<<<<< (aa) dot          0.00
                       o<<<<< (ab) str          0.00
                       o<<<<< (ab) gath         0.00
                       o<<<<< (ab) dotab        0.00
                       o<<<<< (ab) scat         0.00
                       o<<<<< (ab) sync         0.00
                       o<<<<< Density           0.00
                       o<<<<< Density one       0.00
                       o<<<<< Density two       0.00
                       o<<<<< Density ab        0.00
                       o<<<<< Spin adapt        0.00
                       o<<<<< Symm adapt        0.00

                       o<<<<< (ab) max sync:      0.00

           >>>| Valence CI:             -2.010968710381
 HVD: 5: nact    =                     4
           >>>| MCSCF energy:           -1.132768108287
           >>>| Gradient norm:          0.000000000D+00




     ==============================
            MCSCF Converged
     ==============================



          Canonical Eigenvalues

              1      
    1   -0.6569
    2    0.6595
    3    0.2121
    4    1.4931

 HVD: 6: nact    =                     4
 HVD: 7: nact    =                     4
 HVD: A: nact =                     4
 HVD: B: nact =                     4
 HVD: C: nact =                     4
 HVD: D: nact =                     4

          Converged CI vector

   Index           Coefficient          Config. Occupation
         1          0.99393172          1  1
         2          0.02927273          1  2
         5          0.02927273          2  1
         6         -0.05514894          2  2
        11         -0.05627229          3  3
        12          0.03647681          3  4
        15          0.03647681          4  3
        16         -0.03894686          4  4

          Number of sigma calls:        1
                       o<<<<< (aa):             0.00
                       o<<<<< (bb):             0.00
                       o<<<<< (ab):             0.00
                       o<<<<< (total)           0.00
                       o<<<<< (aa) ff           0.00
                       o<<<<< (aa) gop          0.00
                       o<<<<< (aa) dot          0.00
                       o<<<<< (ab) str          0.00
                       o<<<<< (ab) gath         0.00
                       o<<<<< (ab) dotab        0.00
                       o<<<<< (ab) scat         0.00
                       o<<<<< (ab) sync         0.00
                       o<<<<< Density           0.00
                       o<<<<< Density one       0.00
                       o<<<<< Density two       0.00
                       o<<<<< Density ab        0.00
                       o<<<<< Spin adapt        0.00
                       o<<<<< Symm adapt        0.00

                       o<<<<< (ab) max sync:      0.00



          Natural orbital occupation numbers

              1      
    1    1.9790
    2    0.0145
    3    0.0063
    4    0.0002

  !! warning: moints 2x:                     1  MO vectors were symmetry contaminated
 HVD: 8: nact    =                     4
 HVD: A: nact =                     4
 HVD: B: nact =                     4
 HVD: C: nact =                     4
 HVD: D: nact =                     4

          Number of sigma calls:        6
                       o<<<<< (aa):             0.00
                       o<<<<< (bb):             0.00
                       o<<<<< (ab):             0.00
                       o<<<<< (total)           0.00
                       o<<<<< (aa) ff           0.00
                       o<<<<< (aa) gop          0.00
                       o<<<<< (aa) dot          0.00
                       o<<<<< (ab) str          0.00
                       o<<<<< (ab) gath         0.00
                       o<<<<< (ab) dotab        0.00
                       o<<<<< (ab) scat         0.00
                       o<<<<< (ab) sync         0.00
                       o<<<<< Density           0.00
                       o<<<<< Density one       0.00
                       o<<<<< Density two       0.00
                       o<<<<< Density ab        0.00
                       o<<<<< Spin adapt        0.00
                       o<<<<< Symm adapt        0.00

                       o<<<<< (ab) max sync:      0.00


       Final MCSCF results 
       ------------------- 

       Total MCSCF energy =     -1.132768108287
            Gradient norm =      0.0D+00

    CPU time for solution =      0.0s
   Wall time for solution =      0.0s



                        Analysis of MCSCF natural orbitals
                        ----------------------------------

 Vector    1  Occ=1.979047D+00  E=-6.569418D-01  Symmetry=a'
              MO Center=  0.0D+00,  0.0D+00, -3.5D-18, r^2= 6.3D-01
   Bfn.  Coefficient  Atom+Function         Bfn.  Coefficient  Atom+Function  
  ----- ------------  ---------------      ----- ------------  ---------------
     1      0.351048  1 H  s                  3      0.351048  2 H  s          
     2      0.234753  1 H  s                  4      0.234753  2 H  s          

 Vector    2  Occ=1.448433D-02  E= 6.594597D-01  Symmetry=a"
              MO Center=  0.0D+00,  0.0D+00,  0.0D+00, r^2= 6.8D-01
   Bfn.  Coefficient  Atom+Function         Bfn.  Coefficient  Atom+Function  
  ----- ------------  ---------------      ----- ------------  ---------------
     1      0.899701  1 H  s                  3     -0.899701  2 H  s          
     2      0.653195  1 H  s                  4     -0.653195  2 H  s          

 Vector    3  Occ=6.264188D-03  E= 2.120741D-01  Symmetry=a'
              MO Center=  0.0D+00,  0.0D+00,  4.6D-16, r^2= 1.6D+00
   Bfn.  Coefficient  Atom+Function         Bfn.  Coefficient  Atom+Function  
  ----- ------------  ---------------      ----- ------------  ---------------
     1      0.702976  1 H  s                  3      0.702976  2 H  s          
     2     -0.677915  1 H  s                  4     -0.677915  2 H  s          

 Vector    4  Occ=2.047576D-04  E= 1.493075D+00  Symmetry=a"
              MO Center=  0.0D+00,  0.0D+00, -8.9D-16, r^2= 2.3D+00
   Bfn.  Coefficient  Atom+Function         Bfn.  Coefficient  Atom+Function  
  ----- ------------  ---------------      ----- ------------  ---------------
     2      2.522223  1 H  s                  4     -2.522223  2 H  s          
     1     -0.901293  1 H  s                  3      0.901293  2 H  s          


 Wrote Lagrangian and 1- and 2-particle density matrices to ./mcscf_dat.mcpdm


     Multipole analysis of the density
     ---------------------------------

     L   x y z        total        nuclear
     -   - - -        -----        -------
     0   0 0 0     -0.000000      2.000000

     1   1 0 0      0.000000      0.000000
     1   0 1 0      0.000000      0.000000
     1   0 0 1     -0.000000      0.000000

     2   2 0 0     -1.354803      0.000000
     2   1 1 0      0.000000      0.000000
     2   1 0 1      0.000000      0.000000
     2   0 2 0     -1.354803      0.000000
     2   0 1 1      0.000000      0.000000
     2   0 0 2     -1.148443      0.648310


  Mulliken analysis of the total density
  --------------------------------------

    Atom       Charge   Shell Charges
 -----------   ------   -------------------------------------------------------
    1 H    1     1.00   0.59  0.41
    2 H    1     1.00   0.59  0.41

    Mulliken analysis of the active space density
    ---------------------------------------------

    Atom       Charge   Shell Charges
 -----------   ------   -------------------------------------------------------
    1 H    1     1.00   0.59  0.41
    2 H    1     1.00   0.59  0.41

 Parallel integral file used       1 records with       0 large values


 Task  times  cpu:        0.0s     wall:        0.0s
 Summary of allocated global arrays
-----------------------------------
  No active global arrays



                         GA Statistics for process    0
                         ------------------------------

       create   destroy   get      put      acc     scatter   gather  read&inc
calls:  280      280      916      374     1012       12        0      396     
number of processes/call 1.00e+00 1.00e+00 1.00e+00 0.00e+00 0.00e+00
bytes total:             4.31e+04 2.67e+04 2.75e+04 5.76e+02 0.00e+00 3.17e+03
bytes remote:            0.00e+00 0.00e+00 0.00e+00 0.00e+00 0.00e+00 0.00e+00
Max memory consumed for GA by this process: 5264 bytes
MA_summarize_allocated_blocks: starting scan ...
MA_summarize_allocated_blocks: scan completed: 0 heap blocks, 0 stack blocks
MA usage statistics:

	allocation statistics:
					      heap	     stack
					      ----	     -----
	current number of blocks	         0	         0
	maximum number of blocks	        19	        22
	current total bytes		         0	         0
	maximum total bytes		   1118456	  22511352
	maximum total K-bytes		      1119	     22512
	maximum total M-bytes		         2	        23


                                NWChem Input Module
                                -------------------





                                     CITATION
                                     --------
                Please cite the following reference when publishing
                           results obtained with NWChem:

                 M. Valiev, E.J. Bylaska, N. Govind, K. Kowalski,
              T.P. Straatsma, H.J.J. van Dam, D. Wang, J. Nieplocha,
                        E. Apra, T.L. Windus, W.A. de Jong
                 "NWChem: a comprehensive and scalable open-source
                  solution for large scale molecular simulations"
                      Comput. Phys. Commun. 181, 1477 (2010)
                           doi:10.1016/j.cpc.2010.04.018

                                      AUTHORS
                                      -------
          E. Apra, E. J. Bylaska, W. A. de Jong, N. Govind, K. Kowalski,
       T. P. Straatsma, M. Valiev, H. J. J. van Dam, D. Wang, T. L. Windus,
        J. Hammond, J. Autschbach, K. Bhaskaran-Nair, J. Brabec, K. Lopata,
    S. A. Fischer, S. Krishnamoorthy, M. Jacquelin, W. Ma, M. Klemm, O. Villa,
      Y. Chen, V. Anisimov, F. Aquino, S. Hirata, M. T. Hackler, V. Konjkov,
      T. Risthaus, M. Malagoli, A. Marenich, A. Otero-de-la-Roza, J. Mullin,
        P. Nichols, R. Peverati, J. Pittner, Y. Zhao, P.-D. Fan, A. Fonari,
       M. Williamson, R. J. Harrison, J. R. Rehr, M. Dupuis, D. Silverstein,
    D. M. A. Smith, J. Nieplocha, V. Tipparaju, M. Krishnan, B. E. Van Kuiken,
        A. Vazquez-Mayagoitia, L. Jensen, M. Swart, Q. Wu, T. Van Voorhis,
     A. A. Auer, M. Nooijen, L. D. Crosby, E. Brown, G. Cisneros, G. I. Fann,
   H. Fruchtl, J. Garza, K. Hirao, R. A. Kendall, J. A. Nichols, K. Tsemekhman,
    K. Wolinski, J. Anchell, D. E. Bernholdt, P. Borowski, T. Clark, D. Clerc,
   H. Dachsel, M. J. O. Deegan, K. Dyall, D. Elwood, E. Glendening, M. Gutowski,
   A. C. Hess, J. Jaffe, B. G. Johnson, J. Ju, R. Kobayashi, R. Kutteh, Z. Lin,
   R. Littlefield, X. Long, B. Meng, T. Nakajima, S. Niu, L. Pollack, M. Rosing,
   K. Glaesemann, G. Sandrone, M. Stave, H. Taylor, G. Thomas, J. H. van Lenthe,
                               A. T. Wong, Z. Zhang.

 Total times  cpu:        0.0s     wall:        0.1s
