 argument  1 = /home/hvandam/nwchem-1-wfn1/QA/tests/wfn1-h2-6-31g-wfn1c14e/input-wf-6-31g-8.138692.nw



============================== echo of input deck ==============================
echo
start wfn1_dat
geometry units au noautoz
  H 0 0 -4.06934600000000000000
  H 0 0  4.06934600000000000000
  symmetry cs
end
basis
  H library 6-31g
end
set wfn1:input_vectors "atomic"
set wfn1:solver "monte-carlo"
set wfn1:print_error F
set wfn1:t_initial 0.1
#set wfn1:corr_expr "wfn1_mx"
set wfn1:corr_expr "wfn1c14"
#
set wfn1:fcd00  0.198826
set wfn1:fcd01  0.294438
set wfn1:fcd11  0.247007
set wfn1:fcd05  0.020225
set wfn1:fcd51  -0.098842
set wfn1:fcd55  -0.201236
#
set wfn1:rcd00  0.884548
set wfn1:rcd01  1.211432
set wfn1:rcd11  0.255064
set wfn1:rcd05  0.988291
set wfn1:rcd51  0.535281
set wfn1:rcd55  0.701049
#
set wfn1:fco00  -0.005884
set wfn1:fco01  0.063203
set wfn1:fco11  0.357171
set wfn1:fco05  0.019518
set wfn1:fco51  0.871725
set wfn1:fco55  1.051801
#
set wfn1:rco00  1.033050
set wfn1:rco01  0.850461
set wfn1:rco11  0.110139
set wfn1:rco05  0.985630
set wfn1:rco51  0.139729
set wfn1:rco55  0.918333
#
set wfn1:t_bath 0.0
set wfn1:maxit  20000
task wfn1 energy
================================================================================


                                         
                                         


              Northwest Computational Chemistry Package (NWChem) 6.8
              ------------------------------------------------------


                    Environmental Molecular Sciences Laboratory
                       Pacific Northwest National Laboratory
                                Richland, WA 99352

                              Copyright (c) 1994-2015
                       Pacific Northwest National Laboratory
                            Battelle Memorial Institute

             NWChem is an open-source computational chemistry package
                        distributed under the terms of the
                      Educational Community License (ECL) 2.0
             A copy of the license is included with this distribution
                              in the LICENSE.TXT file

                                  ACKNOWLEDGMENT
                                  --------------

            This software and its documentation were developed at the
            EMSL at Pacific Northwest National Laboratory, a multiprogram
            national laboratory, operated for the U.S. Department of Energy
            by Battelle under Contract Number DE-AC05-76RL01830. Support
            for this work was provided by the Department of Energy Office
            of Biological and Environmental Research, Office of Basic
            Energy Sciences, and the Office of Advanced Scientific Computing.


           Job information
           ---------------

    hostname        = node023
    program         = /home/hvandam/nwchem-1-wfn1/bin/LINUX64/nwchem
    date            = Thu Jun 17 23:51:09 2021

    compiled        = Sun_Jun_13_23:38:55_2021
    source          = /home/hvandam/nwchem-1-wfn1
    nwchem branch   = Development
    nwchem revision = nwchem_on_git-124-gad72d19fff205e319ffbbf2bca37a04ded6ad57b
    ga revision     = nwchem_on_git-124-gad72d19
    use scalapack   = F
    input           = /home/hvandam/nwchem-1-wfn1/QA/tests/wfn1-h2-6-31g-wfn1c14e/input-wf-6-31g-8.138692.nw
    prefix          = wfn1_dat.
    data base       = ./wfn1_dat.db
    status          = startup
    nproc           =        1
    time left       =     -1s



           Memory information
           ------------------

    heap     =   13107198 doubles =    100.0 Mbytes
    stack    =   13107195 doubles =    100.0 Mbytes
    global   =   26214400 doubles =    200.0 Mbytes (distinct from heap & stack)
    total    =   52428793 doubles =    400.0 Mbytes
    verify   = yes
    hardfail = no 


           Directory information
           ---------------------

  0 permanent = .
  0 scratch   = .




                                NWChem Input Module
                                -------------------


 Turning off AUTOSYM since
 SYMMETRY directive was detected!



                             Geometry "geometry" -> ""
                             -------------------------

 Output coordinates in a.u. (scale by  1.000000000 to convert to a.u.)

  No.       Tag          Charge          X              Y              Z
 ---- ---------------- ---------- -------------- -------------- --------------
    1 H                    1.0000     0.00000000     0.00000000    -4.06934600
    2 H                    1.0000     0.00000000     0.00000000     4.06934600

      Atomic Mass 
      ----------- 

      H                  1.007825


 Effective nuclear repulsion energy (a.u.)       0.1228698666

            Nuclear Dipole moment (a.u.) 
            ----------------------------
        X                 Y               Z
 ---------------- ---------------- ----------------
     0.0000000000     0.0000000000     0.0000000000

      Symmetry information
      --------------------

 Group name             Cs        
 Group number              2
 Group order               2
 No. of unique centers     1

      Symmetry unique atoms

     1


            XYZ format geometry
            -------------------
     2
 geometry
 H                     0.00000000     0.00000000    -2.15340532
 H                     0.00000000     0.00000000     2.15340532

                      Basis "ao basis" -> "" (cartesian)
                      -----
  H (Hydrogen)
  ------------
            Exponent  Coefficients 
       -------------- ---------------------------------------------------------
  1 S  1.87311370E+01  0.033495
  1 S  2.82539370E+00  0.234727
  1 S  6.40121700E-01  0.813757

  2 S  1.61277800E-01  1.000000



 Summary of "ao basis" -> "" (cartesian)
 ------------------------------------------------------------------------------
       Tag                 Description            Shells   Functions and Types
 ---------------- ------------------------------  ------  ---------------------
 H                           6-31g                   2        2   2s



                                NWChem WFN1 Module
                                ------------------



          No. of electrons :     2
           Alpha electrons :     1
            Beta electrons :     1
          Charge           :     0
          Spin multiplicity:     1

 HvD: wfn1_inpdft
 HvD: nquad_task =                     1
 HvD: iangquad   =                     0
 HvD: gridtype   = user      
 HvD: leb        =  T
 HvD: radgrid    = murakn    
 HvD: trunc_neigh=  T
 HvD: lssw       =  T
 HvD: whichssw   = erf1    
 HvD: mxnrad     =                     0
 HvD: mxnang     =                     0
 HVD: wfn1: movecs_in  = atomic                                                                                                                                                                                                                                                          
 HVD: wfn1: movecs_out = ./wfn1_dat.movecs                                                                                                                                                                                                                                               

      Superposition of Atomic Density Guess
      -------------------------------------

 Sum of atomic energies:          -0.99646508

      Non-variational initial energy
      ------------------------------

 Total energy =      -0.682111
 1-e energy   =      -1.242206
 2-e energy   =       0.437225
 HOMO         =      -0.193070
 LUMO         =      -0.189301

 iteration              energy           error
 ---------              ------           -----
         0         -0.98436067        0.020000
         1         -0.98452956        0.020000
         2         -0.98706155        0.020000
         3         -0.98808352        0.020000
         4         -0.98917651        0.020000
         5         -0.98998046        0.020000
         6         -0.99024127        0.020000
         7         -0.99042149        0.020000
         8         -0.99157408        0.020000
         9         -0.99234719        0.020000
        10         -0.99350637        0.020000
        11         -0.99411225        0.020000
        12         -0.99427847        0.020000
        13         -0.99512813        0.020000
        14         -0.99513774        0.020000
        15         -0.99560525        0.020000
        16         -0.99583518        0.020000
        17         -0.99596684        0.020000
        18         -0.99604525        0.020000
        19         -0.99608984        0.019935
        20         -0.99610256        0.019935
        21         -0.99610751        0.019935
        22         -0.99611443        0.019935
        23         -0.99613402        0.019492
        24         -0.99613791        0.019492
        25         -0.99617241        0.019182
        26         -0.99618587        0.019182
        27         -0.99619121        0.019182
        28         -0.99621344        0.018756
        29         -0.99626079        0.018398
        30         -0.99629828        0.017931
        31         -0.99630489        0.017931
        32         -0.99632510        0.017931
        33         -0.99634125        0.015570
        34         -0.99636103        0.014006
        35         -0.99636474        0.010834
        36         -0.99637509        0.010834
        37         -0.99637526        0.010834
        38         -0.99638651        0.010834
        39         -0.99638892        0.010560
        40         -0.99639993        0.008490
        41         -0.99640024        0.008039
        42         -0.99640158        0.007185
        43         -0.99640181        0.006803
        44         -0.99640653        0.006803
        45         -0.99640869        0.006803
        46         -0.99641566        0.006803
        47         -0.99641581        0.006259
        48         -0.99641613        0.002744
        49         -0.99641659        0.002122
        50         -0.99641691        0.001790
        51         -0.99641692        0.001695
        52         -0.99641706        0.001103
        53         -0.99641707        0.000958
        54         -0.99641715        0.000933
        55         -0.99641717        0.000910
        56         -0.99641721        0.000910
        57         -0.99641722        0.000575
        58         -0.99641722        0.000546
        59         -0.99641723        0.000410
        60         -0.99641723        0.000308
        61         -0.99641723        0.000260
        62         -0.99641723        0.000226
        63         -0.99641723        0.000180
        64         -0.99641723        0.000135
        65         -0.99641723        0.000135
        66         -0.99641723        0.000135
        67         -0.99641723        0.000132
        68         -0.99641723        0.000119
        69         -0.99641723        0.000119
        70         -0.99641723        0.000116
        71         -0.99641723        0.000113
        72         -0.99641723        0.000080
        73         -0.99641723        0.000076
        74         -0.99641723        0.000076
        75         -0.99641723        0.000054
        76         -0.99641723        0.000046
        77         -0.99641723        0.000046
        78         -0.99641723        0.000043
        79         -0.99641724        0.000042
        80         -0.99641724        0.000042
        81         -0.99641724        0.000036
        82         -0.99641724        0.000036
        83         -0.99641724        0.000033
        84         -0.99641724        0.000032
        85         -0.99641724        0.000031
        86         -0.99641724        0.000031
        87         -0.99641724        0.000027
        88         -0.99641724        0.000024
        89         -0.99641724        0.000022
        90         -0.99641724        0.000019
        91         -0.99641724        0.000018
        92         -0.99641724        0.000016
        93         -0.99641724        0.000016
        94         -0.99641724        0.000014
        95         -0.99641724        0.000014
        96         -0.99641724        0.000012
        97         -0.99641724        0.000011
        98         -0.99641724        0.000010
        99         -0.99641724        0.000008
       100         -0.99641724        0.000008
       101         -0.99641724        0.000008
       102         -0.99641724        0.000008
       103         -0.99641724        0.000007
       104         -0.99641724        0.000006
       105         -0.99641724        0.000005
       106         -0.99641724        0.000004
       107         -0.99641724        0.000004
       108         -0.99641724        0.000003
       109         -0.99641724        0.000003
       110         -0.99641724        0.000003
       111         -0.99641724        0.000003
       112         -0.99641724        0.000002
       113         -0.99641724        0.000002
       114         -0.99641724        0.000002
       115         -0.99641724        0.000002
       116         -0.99641724        0.000001
       117         -0.99641724        0.000001
       118         -0.99641724        0.000001

 Reached Convergence

 WFN1                     :
 --------------------------
 Total WFN1 energy  =          -0.9964172353
 1-Electron energy  =          -1.2422198620
 2-Electron energy  =           0.3761462286
 Correlation energy =          -0.2532134685
 DFT XC energy      =           0.0000000000
 Entropy energy     =           0.0000000000
 Nuclear energy     =           0.1228698666

 conventional Hartree-Fock:
 --------------------------
 Total SCF energy  =          -0.9349844176
 2-Electron energy =           0.4375790463

                WFN1 Final Natural orbital energies and occupations
                ---------------------------------------------------

              Alpha       Beta            Alpha       Beta  
            --------    --------        --------    --------
       1      0.0000      0.0000          0.5034      0.5034
       2      0.0000      0.0000          0.4966      0.4966
       3      0.0000      0.0000          0.0000      0.0000
       4      0.0000      0.0000          0.0000      0.0000

             WFN1 Final Correlation function energies and occupations
             --------------------------------------------------------

              Alpha       Beta            Alpha       Beta  
            --------    --------        --------    --------
       1      0.0000      0.0000          1.0000      1.0000
       2      0.0000      0.0000          0.0000      0.0000
       3      0.0000      0.0000          0.0000      0.0000
       4      0.0000      0.0000          0.0000      0.0000

                WFN1 Final alpha-alpha 2-matrix occupation numbers
                --------------------------------------------------


 global array: g_momo1[1:4,1:4],  handle: -990 

            1           2           3           4  
       ----------- ----------- ----------- -----------
   1       0.00000     0.00000     0.00000    -0.00000
   2       0.00000     0.00000     0.00000     0.00000
   3       0.00000     0.00000    -0.00000     0.00000
   4       0.00000     0.00000     0.00000     0.00000

                 WFN1 Final beta-beta 2-matrix occupation numbers
                 ------------------------------------------------


 global array: g_momo2[1:4,1:4],  handle: -989 

            1           2           3           4  
       ----------- ----------- ----------- -----------
   1       0.00000     0.00000     0.00000    -0.00000
   2       0.00000     0.00000     0.00000     0.00000
   3       0.00000     0.00000    -0.00000     0.00000
   4       0.00000     0.00000     0.00000     0.00000

                  WFN1 Final alpha Correlation Function Analysis
                  ----------------------------------------------


 global array: Ca[1:4,1:4],  handle: -976 

                     1                       2                       3                       4  
       ----------------------- ----------------------- ----------------------- -----------------------
   1       0.45442,   -0.54487     0.45020,   -0.53911    -0.00503,    0.04055     0.01405,    0.03791
   2       0.69919,   -0.08810    -0.70162,    0.08794     0.03154,   -0.02643     0.01561,   -0.03779
   3       0.00003,    0.00012    -0.07141,   -0.03477    -0.70602,    0.24408    -0.61881,    0.22962
   4      -0.00006,   -0.00010     0.00245,    0.01882    -0.51223,    0.41979     0.56707,   -0.48936

                   WFN1 Final beta Correlation Function Analysis
                   ---------------------------------------------


 global array: Cb[1:4,1:4],  handle: -975 

                     1                       2                       3                       4  
       ----------------------- ----------------------- ----------------------- -----------------------
   1       0.45442,   -0.54487     0.45020,   -0.53911    -0.00503,    0.04055     0.01405,    0.03791
   2       0.69919,   -0.08810    -0.70162,    0.08794     0.03154,   -0.02643     0.01561,   -0.03779
   3       0.00003,    0.00012    -0.07141,   -0.03477    -0.70602,    0.24408    -0.61881,    0.22962
   4      -0.00006,   -0.00010     0.00245,    0.01882    -0.51223,    0.41979     0.56707,   -0.48936

                     WFN1 Final Alpha Natural Orbital Analysis
                     -----------------------------------------

 Vector    1  Occ=5.033764D-01  E= 0.000000D+00
              MO Center=  0.0D+00,  0.0D+00, -8.0D-08, r^2= 5.4D+00
   Bfn.  Coefficient  Atom+Function         Bfn.  Coefficient  Atom+Function  
  ----- ------------  ---------------      ----- ------------  ---------------
     2     -0.470225  1 H  s                  4     -0.470225  2 H  s          
     1     -0.301694  1 H  s                  3     -0.301694  2 H  s          

 Vector    2  Occ=4.966236D-01  E= 0.000000D+00
              MO Center=  0.0D+00,  0.0D+00,  7.5D-08, r^2= 5.4D+00
   Bfn.  Coefficient  Atom+Function         Bfn.  Coefficient  Atom+Function  
  ----- ------------  ---------------      ----- ------------  ---------------
     2     -0.469274  1 H  s                  4      0.469275  2 H  s          
     1     -0.304514  1 H  s                  3      0.304514  2 H  s          

 Vector    3  Occ=1.549470D-08  E= 0.000000D+00
              MO Center=  0.0D+00,  0.0D+00,  2.4D-01, r^2= 5.8D+00
   Bfn.  Coefficient  Atom+Function         Bfn.  Coefficient  Atom+Function  
  ----- ------------  ---------------      ----- ------------  ---------------
     3      0.936449  2 H  s                  4     -0.853383  2 H  s          
     1      0.836584  1 H  s                  2     -0.761609  1 H  s          

 Vector    4  Occ=1.322102D-08  E= 0.000000D+00
              MO Center=  0.0D+00,  0.0D+00, -2.4D-01, r^2= 5.8D+00
   Bfn.  Coefficient  Atom+Function         Bfn.  Coefficient  Atom+Function  
  ----- ------------  ---------------      ----- ------------  ---------------
     1     -0.938712  1 H  s                  2      0.862260  1 H  s          
     3      0.839117  2 H  s                  4     -0.771542  2 H  s          


                     WFN1 Final Beta Natural Orbital Analysis
                     ----------------------------------------

 Vector    1  Occ=5.033764D-01  E= 0.000000D+00
              MO Center=  0.0D+00,  0.0D+00, -8.0D-08, r^2= 5.4D+00
   Bfn.  Coefficient  Atom+Function         Bfn.  Coefficient  Atom+Function  
  ----- ------------  ---------------      ----- ------------  ---------------
     2     -0.470225  1 H  s                  4     -0.470225  2 H  s          
     1     -0.301694  1 H  s                  3     -0.301694  2 H  s          

 Vector    2  Occ=4.966236D-01  E= 0.000000D+00
              MO Center=  0.0D+00,  0.0D+00,  7.5D-08, r^2= 5.4D+00
   Bfn.  Coefficient  Atom+Function         Bfn.  Coefficient  Atom+Function  
  ----- ------------  ---------------      ----- ------------  ---------------
     2     -0.469274  1 H  s                  4      0.469275  2 H  s          
     1     -0.304514  1 H  s                  3      0.304514  2 H  s          

 Vector    3  Occ=1.549470D-08  E= 0.000000D+00
              MO Center=  0.0D+00,  0.0D+00,  2.4D-01, r^2= 5.8D+00
   Bfn.  Coefficient  Atom+Function         Bfn.  Coefficient  Atom+Function  
  ----- ------------  ---------------      ----- ------------  ---------------
     3      0.936449  2 H  s                  4     -0.853383  2 H  s          
     1      0.836584  1 H  s                  2     -0.761609  1 H  s          

 Vector    4  Occ=1.322102D-08  E= 0.000000D+00
              MO Center=  0.0D+00,  0.0D+00, -2.4D-01, r^2= 5.8D+00
   Bfn.  Coefficient  Atom+Function         Bfn.  Coefficient  Atom+Function  
  ----- ------------  ---------------      ----- ------------  ---------------
     1     -0.938712  1 H  s                  2      0.862260  1 H  s          
     3      0.839117  2 H  s                  4     -0.771542  2 H  s          


 Task  times  cpu:      186.0s     wall:      210.3s
 Summary of allocated global arrays
-----------------------------------
  No active global arrays



                         GA Statistics for process    0
                         ------------------------------

       create   destroy   get      put      acc     scatter   gather  read&inc
calls:   61       61     4.80e+07 2.12e+05 1.63e+05    0        0       11     
number of processes/call 1.00e+00 1.00e+00 1.00e+00 0.00e+00 0.00e+00
bytes total:             6.17e+09 3.86e+07 2.71e+07 0.00e+00 0.00e+00 8.80e+01
bytes remote:            0.00e+00 0.00e+00 0.00e+00 0.00e+00 0.00e+00 0.00e+00
Max memory consumed for GA by this process: 12160 bytes
MA_summarize_allocated_blocks: starting scan ...
MA_summarize_allocated_blocks: scan completed: 0 heap blocks, 0 stack blocks
MA usage statistics:

	allocation statistics:
					      heap	     stack
					      ----	     -----
	current number of blocks	         0	         0
	maximum number of blocks	        19	        17
	current total bytes		         0	         0
	maximum total bytes		   3204344	  22508664
	maximum total K-bytes		      3205	     22509
	maximum total M-bytes		         4	        23


                                NWChem Input Module
                                -------------------





                                     CITATION
                                     --------
                Please cite the following reference when publishing
                           results obtained with NWChem:

                 M. Valiev, E.J. Bylaska, N. Govind, K. Kowalski,
              T.P. Straatsma, H.J.J. van Dam, D. Wang, J. Nieplocha,
                        E. Apra, T.L. Windus, W.A. de Jong
                 "NWChem: a comprehensive and scalable open-source
                  solution for large scale molecular simulations"
                      Comput. Phys. Commun. 181, 1477 (2010)
                           doi:10.1016/j.cpc.2010.04.018

                                      AUTHORS
                                      -------
          E. Apra, E. J. Bylaska, W. A. de Jong, N. Govind, K. Kowalski,
       T. P. Straatsma, M. Valiev, H. J. J. van Dam, D. Wang, T. L. Windus,
        J. Hammond, J. Autschbach, K. Bhaskaran-Nair, J. Brabec, K. Lopata,
    S. A. Fischer, S. Krishnamoorthy, M. Jacquelin, W. Ma, M. Klemm, O. Villa,
      Y. Chen, V. Anisimov, F. Aquino, S. Hirata, M. T. Hackler, V. Konjkov,
      T. Risthaus, M. Malagoli, A. Marenich, A. Otero-de-la-Roza, J. Mullin,
        P. Nichols, R. Peverati, J. Pittner, Y. Zhao, P.-D. Fan, A. Fonari,
       M. Williamson, R. J. Harrison, J. R. Rehr, M. Dupuis, D. Silverstein,
    D. M. A. Smith, J. Nieplocha, V. Tipparaju, M. Krishnan, B. E. Van Kuiken,
        A. Vazquez-Mayagoitia, L. Jensen, M. Swart, Q. Wu, T. Van Voorhis,
     A. A. Auer, M. Nooijen, L. D. Crosby, E. Brown, G. Cisneros, G. I. Fann,
   H. Fruchtl, J. Garza, K. Hirao, R. A. Kendall, J. A. Nichols, K. Tsemekhman,
    K. Wolinski, J. Anchell, D. E. Bernholdt, P. Borowski, T. Clark, D. Clerc,
   H. Dachsel, M. J. O. Deegan, K. Dyall, D. Elwood, E. Glendening, M. Gutowski,
   A. C. Hess, J. Jaffe, B. G. Johnson, J. Ju, R. Kobayashi, R. Kutteh, Z. Lin,
   R. Littlefield, X. Long, B. Meng, T. Nakajima, S. Niu, L. Pollack, M. Rosing,
   K. Glaesemann, G. Sandrone, M. Stave, H. Taylor, G. Thomas, J. H. van Lenthe,
                               A. T. Wong, Z. Zhang.

 Total times  cpu:      186.0s     wall:      210.4s
        0.503376        0.496624        0.000000        0.000000        0.503376        0.496624        0.000000        0.000000