 argument  1 = /home/hvandam/nwchem-1-wfn1/QA/tests/wfn1-h2-6-31g-wfn1c14e/input-wf-6-31g-4.888692.nw



============================== echo of input deck ==============================
echo
start wfn1_dat
geometry units au noautoz
  H 0 0 -2.44434600000000000000
  H 0 0  2.44434600000000000000
  symmetry cs
end
basis
  H library 6-31g
end
set wfn1:input_vectors "atomic"
set wfn1:solver "monte-carlo"
set wfn1:print_error F
set wfn1:t_initial 0.1
#set wfn1:corr_expr "wfn1_mx"
set wfn1:corr_expr "wfn1c14"
#
set wfn1:fcd00  0.198826
set wfn1:fcd01  0.294438
set wfn1:fcd11  0.247007
set wfn1:fcd05  0.020225
set wfn1:fcd51  -0.098842
set wfn1:fcd55  -0.201236
#
set wfn1:rcd00  0.884548
set wfn1:rcd01  1.211432
set wfn1:rcd11  0.255064
set wfn1:rcd05  0.988291
set wfn1:rcd51  0.535281
set wfn1:rcd55  0.701049
#
set wfn1:fco00  -0.005884
set wfn1:fco01  0.063203
set wfn1:fco11  0.357171
set wfn1:fco05  0.019518
set wfn1:fco51  0.871725
set wfn1:fco55  1.051801
#
set wfn1:rco00  1.033050
set wfn1:rco01  0.850461
set wfn1:rco11  0.110139
set wfn1:rco05  0.985630
set wfn1:rco51  0.139729
set wfn1:rco55  0.918333
#
set wfn1:t_bath 0.0
set wfn1:maxit  20000
task wfn1 energy
================================================================================


                                         
                                         


              Northwest Computational Chemistry Package (NWChem) 6.8
              ------------------------------------------------------


                    Environmental Molecular Sciences Laboratory
                       Pacific Northwest National Laboratory
                                Richland, WA 99352

                              Copyright (c) 1994-2015
                       Pacific Northwest National Laboratory
                            Battelle Memorial Institute

             NWChem is an open-source computational chemistry package
                        distributed under the terms of the
                      Educational Community License (ECL) 2.0
             A copy of the license is included with this distribution
                              in the LICENSE.TXT file

                                  ACKNOWLEDGMENT
                                  --------------

            This software and its documentation were developed at the
            EMSL at Pacific Northwest National Laboratory, a multiprogram
            national laboratory, operated for the U.S. Department of Energy
            by Battelle under Contract Number DE-AC05-76RL01830. Support
            for this work was provided by the Department of Energy Office
            of Biological and Environmental Research, Office of Basic
            Energy Sciences, and the Office of Advanced Scientific Computing.


           Job information
           ---------------

    hostname        = node023
    program         = /home/hvandam/nwchem-1-wfn1/bin/LINUX64/nwchem
    date            = Thu Jun 17 23:47:25 2021

    compiled        = Sun_Jun_13_23:38:55_2021
    source          = /home/hvandam/nwchem-1-wfn1
    nwchem branch   = Development
    nwchem revision = nwchem_on_git-124-gad72d19fff205e319ffbbf2bca37a04ded6ad57b
    ga revision     = nwchem_on_git-124-gad72d19
    use scalapack   = F
    input           = /home/hvandam/nwchem-1-wfn1/QA/tests/wfn1-h2-6-31g-wfn1c14e/input-wf-6-31g-4.888692.nw
    prefix          = wfn1_dat.
    data base       = ./wfn1_dat.db
    status          = startup
    nproc           =        1
    time left       =     -1s



           Memory information
           ------------------

    heap     =   13107196 doubles =    100.0 Mbytes
    stack    =   13107201 doubles =    100.0 Mbytes
    global   =   26214400 doubles =    200.0 Mbytes (distinct from heap & stack)
    total    =   52428797 doubles =    400.0 Mbytes
    verify   = yes
    hardfail = no 


           Directory information
           ---------------------

  0 permanent = .
  0 scratch   = .




                                NWChem Input Module
                                -------------------


 Turning off AUTOSYM since
 SYMMETRY directive was detected!



                             Geometry "geometry" -> ""
                             -------------------------

 Output coordinates in a.u. (scale by  1.000000000 to convert to a.u.)

  No.       Tag          Charge          X              Y              Z
 ---- ---------------- ---------- -------------- -------------- --------------
    1 H                    1.0000     0.00000000     0.00000000    -2.44434600
    2 H                    1.0000     0.00000000     0.00000000     2.44434600

      Atomic Mass 
      ----------- 

      H                  1.007825


 Effective nuclear repulsion energy (a.u.)       0.2045536925

            Nuclear Dipole moment (a.u.) 
            ----------------------------
        X                 Y               Z
 ---------------- ---------------- ----------------
     0.0000000000     0.0000000000     0.0000000000

      Symmetry information
      --------------------

 Group name             Cs        
 Group number              2
 Group order               2
 No. of unique centers     1

      Symmetry unique atoms

     1


            XYZ format geometry
            -------------------
     2
 geometry
 H                     0.00000000     0.00000000    -1.29349229
 H                     0.00000000     0.00000000     1.29349229

                      Basis "ao basis" -> "" (cartesian)
                      -----
  H (Hydrogen)
  ------------
            Exponent  Coefficients 
       -------------- ---------------------------------------------------------
  1 S  1.87311370E+01  0.033495
  1 S  2.82539370E+00  0.234727
  1 S  6.40121700E-01  0.813757

  2 S  1.61277800E-01  1.000000



 Summary of "ao basis" -> "" (cartesian)
 ------------------------------------------------------------------------------
       Tag                 Description            Shells   Functions and Types
 ---------------- ------------------------------  ------  ---------------------
 H                           6-31g                   2        2   2s



                                NWChem WFN1 Module
                                ------------------



          No. of electrons :     2
           Alpha electrons :     1
            Beta electrons :     1
          Charge           :     0
          Spin multiplicity:     1

 HvD: wfn1_inpdft
 HvD: nquad_task =                     1
 HvD: iangquad   =                     0
 HvD: gridtype   = user      
 HvD: leb        =  T
 HvD: radgrid    = murakn    
 HvD: trunc_neigh=  T
 HvD: lssw       =  T
 HvD: whichssw   = erf1    
 HvD: mxnrad     =                     0
 HvD: mxnang     =                     0
 HVD: wfn1: movecs_in  = atomic                                                                                                                                                                                                                                                          
 HVD: wfn1: movecs_out = ./wfn1_dat.movecs                                                                                                                                                                                                                                               

      Superposition of Atomic Density Guess
      -------------------------------------

 Sum of atomic energies:          -0.99646508

      Non-variational initial energy
      ------------------------------

 Total energy =      -0.683885
 1-e energy   =      -1.405558
 2-e energy   =       0.517119
 HOMO         =      -0.225112
 LUMO         =      -0.154726

 iteration              energy           error
 ---------              ------           -----
         0         -0.98607688        0.020000
         1         -0.98636680        0.020000
         2         -0.98685500        0.020000
         3         -0.98687686        0.020000
         4         -0.98766716        0.020000
         5         -0.98830237        0.020000
         6         -0.98845025        0.020000
         7         -0.98899718        0.020000
         8         -0.98913340        0.020000
         9         -0.99009593        0.020000
        10         -0.99025637        0.020000
        11         -0.99026268        0.020000
        12         -0.99039974        0.020000
        13         -0.99047285        0.020000
        14         -0.99101701        0.020000
        15         -0.99141211        0.020000
        16         -0.99142010        0.020000
        17         -0.99146812        0.020000
        18         -0.99187050        0.020000
        19         -0.99205691        0.020000
        20         -0.99280610        0.020000
        21         -0.99299273        0.020000
        22         -0.99302305        0.020000
        23         -0.99339801        0.020000
        24         -0.99362186        0.020000
        25         -0.99389382        0.020000
        26         -0.99439087        0.020000
        27         -0.99478023        0.020000
        28         -0.99502165        0.020000
        29         -0.99545455        0.020000
        30         -0.99554917        0.020000
        31         -0.99586016        0.020000
        32         -0.99597377        0.020000
        33         -0.99673042        0.020000
        34         -0.99691655        0.020000
        35         -0.99693299        0.020000
        36         -0.99697376        0.020000
        37         -0.99700162        0.020000
        38         -0.99705127        0.020000
        39         -0.99706674        0.020000
        40         -0.99708117        0.020000
        41         -0.99718108        0.020000
        42         -0.99719445        0.020000
        43         -0.99719530        0.014416
        44         -0.99723364        0.013650
        45         -0.99724482        0.012200
        46         -0.99724979        0.010292
        47         -0.99725196        0.007301
        48         -0.99725201        0.007116
        49         -0.99725243        0.004497
        50         -0.99725361        0.004497
        51         -0.99725393        0.004383
        52         -0.99725416        0.004164
        53         -0.99725442        0.004058
        54         -0.99725562        0.004058
        55         -0.99725734        0.003733
        56         -0.99725749        0.003160
        57         -0.99725807        0.002665
        58         -0.99725840        0.002524
        59         -0.99725840        0.002192
        60         -0.99725876        0.001745
        61         -0.99725876        0.001701
        62         -0.99725877        0.001701
        63         -0.99725885        0.001701
        64         -0.99725890        0.001106
        65         -0.99725897        0.001054
        66         -0.99725901        0.000816
        67         -0.99725903        0.000631
        68         -0.99725903        0.000548
        69         -0.99725904        0.000318
        70         -0.99725904        0.000301
        71         -0.99725904        0.000201
        72         -0.99725904        0.000131
        73         -0.99725904        0.000131
        74         -0.99725904        0.000114
        75         -0.99725904        0.000111
        76         -0.99725905        0.000108
        77         -0.99725905        0.000106
        78         -0.99725905        0.000089
        79         -0.99725905        0.000087
        80         -0.99725905        0.000087
        81         -0.99725905        0.000067
        82         -0.99725905        0.000054
        83         -0.99725905        0.000038
        84         -0.99725905        0.000035
        85         -0.99725905        0.000029
        86         -0.99725905        0.000022
        87         -0.99725905        0.000022
        88         -0.99725905        0.000017
        89         -0.99725905        0.000015
        90         -0.99725905        0.000015
        91         -0.99725905        0.000011
        92         -0.99725905        0.000006
        93         -0.99725905        0.000006
        94         -0.99725905        0.000005
        95         -0.99725905        0.000005
        96         -0.99725905        0.000005
        97         -0.99725905        0.000005
        98         -0.99725905        0.000005
        99         -0.99725905        0.000004
       100         -0.99725905        0.000003
       101         -0.99725905        0.000003
       102         -0.99725905        0.000002
       103         -0.99725905        0.000002
       104         -0.99725905        0.000002
       105         -0.99725905        0.000001
       106         -0.99725905        0.000001
       107         -0.99725905        0.000001
       108         -0.99725905        0.000001

 Reached Convergence

 WFN1                     :
 --------------------------
 Total WFN1 energy  =          -0.9972590462
 1-Electron energy  =          -1.4118379241
 2-Electron energy  =           0.4143473544
 Correlation energy =          -0.2043221690
 DFT XC energy      =           0.0000000000
 Entropy energy     =           0.0000000000
 Nuclear energy     =           0.2045536925

 conventional Hartree-Fock:
 --------------------------
 Total SCF energy  =          -0.9003440301
 2-Electron energy =           0.5112623705

                WFN1 Final Natural orbital energies and occupations
                ---------------------------------------------------

              Alpha       Beta            Alpha       Beta  
            --------    --------        --------    --------
       1      0.0000      0.0000          0.6065      0.6065
       2      0.0000      0.0000          0.3935      0.3935
       3      0.0000      0.0000          0.0000      0.0000
       4      0.0000      0.0000          0.0000      0.0000

             WFN1 Final Correlation function energies and occupations
             --------------------------------------------------------

              Alpha       Beta            Alpha       Beta  
            --------    --------        --------    --------
       1      0.0000      0.0000          1.0000      1.0000
       2      0.0000      0.0000          0.0000      0.0000
       3      0.0000      0.0000          0.0000      0.0000
       4      0.0000      0.0000          0.0000      0.0000

                WFN1 Final alpha-alpha 2-matrix occupation numbers
                --------------------------------------------------


 global array: g_momo1[1:4,1:4],  handle: -990 

            1           2           3           4  
       ----------- ----------- ----------- -----------
   1       0.00000     0.00000     0.00000     0.00000
   2       0.00000     0.00000     0.00000     0.00000
   3       0.00000     0.00000     0.00000     0.00000
   4       0.00000     0.00000     0.00000     0.00000

                 WFN1 Final beta-beta 2-matrix occupation numbers
                 ------------------------------------------------


 global array: g_momo2[1:4,1:4],  handle: -989 

            1           2           3           4  
       ----------- ----------- ----------- -----------
   1       0.00000     0.00000     0.00000     0.00000
   2       0.00000     0.00000     0.00000     0.00000
   3       0.00000     0.00000     0.00000     0.00000
   4       0.00000     0.00000     0.00000     0.00000

                  WFN1 Final alpha Correlation Function Analysis
                  ----------------------------------------------


 global array: Ca[1:4,1:4],  handle: -976 

                     1                       2                       3                       4  
       ----------------------- ----------------------- ----------------------- -----------------------
   1       0.58488,   -0.51419    -0.47195,    0.41130     0.02090,    0.00177    -0.03288,   -0.00963
   2       0.62731,    0.00033     0.77718,    0.00379    -0.01787,   -0.01839     0.02284,    0.03576
   3      -0.00022,    0.00015     0.05600,   -0.00942     0.58401,    0.59915    -0.42480,   -0.34098
   4      -0.00003,    0.00012     0.01769,    0.02309     0.33732,   -0.43018     0.43343,   -0.71586

                   WFN1 Final beta Correlation Function Analysis
                   ---------------------------------------------


 global array: Cb[1:4,1:4],  handle: -975 

                     1                       2                       3                       4  
       ----------------------- ----------------------- ----------------------- -----------------------
   1       0.58488,   -0.51419    -0.47195,    0.41130     0.02090,    0.00177    -0.03288,   -0.00963
   2       0.62731,    0.00033     0.77718,    0.00379    -0.01787,   -0.01839     0.02284,    0.03576
   3      -0.00022,    0.00015     0.05600,   -0.00942     0.58401,    0.59915    -0.42480,   -0.34098
   4      -0.00003,    0.00012     0.01769,    0.02309     0.33732,   -0.43018     0.43343,   -0.71586

                     WFN1 Final Alpha Natural Orbital Analysis
                     -----------------------------------------

 Vector    1  Occ=6.064801D-01  E= 0.000000D+00
              MO Center=  0.0D+00,  0.0D+00,  4.3D-07, r^2= 2.4D+00
   Bfn.  Coefficient  Atom+Function         Bfn.  Coefficient  Atom+Function  
  ----- ------------  ---------------      ----- ------------  ---------------
     2     -0.460521  1 H  s                  4     -0.460521  2 H  s          
     1     -0.281197  1 H  s                  3     -0.281197  2 H  s          

 Vector    2  Occ=3.935199D-01  E= 0.000000D+00
              MO Center=  0.0D+00,  0.0D+00, -4.7D-07, r^2= 2.6D+00
   Bfn.  Coefficient  Atom+Function         Bfn.  Coefficient  Atom+Function  
  ----- ------------  ---------------      ----- ------------  ---------------
     2     -0.483835  1 H  s                  4      0.483835  2 H  s          
     1     -0.322148  1 H  s                  3      0.322147  2 H  s          

 Vector    3  Occ=7.119272D-08  E= 0.000000D+00
              MO Center=  0.0D+00,  0.0D+00,  1.6D-01, r^2= 2.6D+00
   Bfn.  Coefficient  Atom+Function         Bfn.  Coefficient  Atom+Function  
  ----- ------------  ---------------      ----- ------------  ---------------
     3     -0.931879  2 H  s                  1     -0.820976  1 H  s          
     4      0.783188  2 H  s                  2      0.670411  1 H  s          

 Vector    4  Occ=1.525051D-08  E= 0.000000D+00
              MO Center=  0.0D+00,  0.0D+00, -1.6D-01, r^2= 3.3D+00
   Bfn.  Coefficient  Atom+Function         Bfn.  Coefficient  Atom+Function  
  ----- ------------  ---------------      ----- ------------  ---------------
     2      0.968603  1 H  s                  1     -0.962371  1 H  s          
     4     -0.879920  2 H  s                  3      0.855430  2 H  s          


                     WFN1 Final Beta Natural Orbital Analysis
                     ----------------------------------------

 Vector    1  Occ=6.064801D-01  E= 0.000000D+00
              MO Center=  0.0D+00,  0.0D+00,  4.3D-07, r^2= 2.4D+00
   Bfn.  Coefficient  Atom+Function         Bfn.  Coefficient  Atom+Function  
  ----- ------------  ---------------      ----- ------------  ---------------
     2     -0.460521  1 H  s                  4     -0.460521  2 H  s          
     1     -0.281197  1 H  s                  3     -0.281197  2 H  s          

 Vector    2  Occ=3.935199D-01  E= 0.000000D+00
              MO Center=  0.0D+00,  0.0D+00, -4.7D-07, r^2= 2.6D+00
   Bfn.  Coefficient  Atom+Function         Bfn.  Coefficient  Atom+Function  
  ----- ------------  ---------------      ----- ------------  ---------------
     2     -0.483835  1 H  s                  4      0.483835  2 H  s          
     1     -0.322148  1 H  s                  3      0.322147  2 H  s          

 Vector    3  Occ=7.119272D-08  E= 0.000000D+00
              MO Center=  0.0D+00,  0.0D+00,  1.6D-01, r^2= 2.6D+00
   Bfn.  Coefficient  Atom+Function         Bfn.  Coefficient  Atom+Function  
  ----- ------------  ---------------      ----- ------------  ---------------
     3     -0.931879  2 H  s                  1     -0.820976  1 H  s          
     4      0.783188  2 H  s                  2      0.670411  1 H  s          

 Vector    4  Occ=1.525051D-08  E= 0.000000D+00
              MO Center=  0.0D+00,  0.0D+00, -1.6D-01, r^2= 3.3D+00
   Bfn.  Coefficient  Atom+Function         Bfn.  Coefficient  Atom+Function  
  ----- ------------  ---------------      ----- ------------  ---------------
     2      0.968603  1 H  s                  1     -0.962371  1 H  s          
     4     -0.879920  2 H  s                  3      0.855430  2 H  s          


 Task  times  cpu:      188.7s     wall:      212.5s
 Summary of allocated global arrays
-----------------------------------
  No active global arrays



                         GA Statistics for process    0
                         ------------------------------

       create   destroy   get      put      acc     scatter   gather  read&inc
calls:   61       61     4.62e+07 2.05e+05 1.57e+05    0        0       11     
number of processes/call 1.00e+00 1.00e+00 1.00e+00 0.00e+00 0.00e+00
bytes total:             5.95e+09 3.72e+07 2.62e+07 0.00e+00 0.00e+00 8.80e+01
bytes remote:            0.00e+00 0.00e+00 0.00e+00 0.00e+00 0.00e+00 0.00e+00
Max memory consumed for GA by this process: 12160 bytes
MA_summarize_allocated_blocks: starting scan ...
MA_summarize_allocated_blocks: scan completed: 0 heap blocks, 0 stack blocks
MA usage statistics:

	allocation statistics:
					      heap	     stack
					      ----	     -----
	current number of blocks	         0	         0
	maximum number of blocks	        19	        17
	current total bytes		         0	         0
	maximum total bytes		   3204360	  22508648
	maximum total K-bytes		      3205	     22509
	maximum total M-bytes		         4	        23


                                NWChem Input Module
                                -------------------





                                     CITATION
                                     --------
                Please cite the following reference when publishing
                           results obtained with NWChem:

                 M. Valiev, E.J. Bylaska, N. Govind, K. Kowalski,
              T.P. Straatsma, H.J.J. van Dam, D. Wang, J. Nieplocha,
                        E. Apra, T.L. Windus, W.A. de Jong
                 "NWChem: a comprehensive and scalable open-source
                  solution for large scale molecular simulations"
                      Comput. Phys. Commun. 181, 1477 (2010)
                           doi:10.1016/j.cpc.2010.04.018

                                      AUTHORS
                                      -------
          E. Apra, E. J. Bylaska, W. A. de Jong, N. Govind, K. Kowalski,
       T. P. Straatsma, M. Valiev, H. J. J. van Dam, D. Wang, T. L. Windus,
        J. Hammond, J. Autschbach, K. Bhaskaran-Nair, J. Brabec, K. Lopata,
    S. A. Fischer, S. Krishnamoorthy, M. Jacquelin, W. Ma, M. Klemm, O. Villa,
      Y. Chen, V. Anisimov, F. Aquino, S. Hirata, M. T. Hackler, V. Konjkov,
      T. Risthaus, M. Malagoli, A. Marenich, A. Otero-de-la-Roza, J. Mullin,
        P. Nichols, R. Peverati, J. Pittner, Y. Zhao, P.-D. Fan, A. Fonari,
       M. Williamson, R. J. Harrison, J. R. Rehr, M. Dupuis, D. Silverstein,
    D. M. A. Smith, J. Nieplocha, V. Tipparaju, M. Krishnan, B. E. Van Kuiken,
        A. Vazquez-Mayagoitia, L. Jensen, M. Swart, Q. Wu, T. Van Voorhis,
     A. A. Auer, M. Nooijen, L. D. Crosby, E. Brown, G. Cisneros, G. I. Fann,
   H. Fruchtl, J. Garza, K. Hirao, R. A. Kendall, J. A. Nichols, K. Tsemekhman,
    K. Wolinski, J. Anchell, D. E. Bernholdt, P. Borowski, T. Clark, D. Clerc,
   H. Dachsel, M. J. O. Deegan, K. Dyall, D. Elwood, E. Glendening, M. Gutowski,
   A. C. Hess, J. Jaffe, B. G. Johnson, J. Ju, R. Kobayashi, R. Kutteh, Z. Lin,
   R. Littlefield, X. Long, B. Meng, T. Nakajima, S. Niu, L. Pollack, M. Rosing,
   K. Glaesemann, G. Sandrone, M. Stave, H. Taylor, G. Thomas, J. H. van Lenthe,
                               A. T. Wong, Z. Zhang.

 Total times  cpu:      188.7s     wall:      212.6s
        0.606480        0.393520        0.000000        0.000000        0.606480        0.393520        0.000000        0.000000