 argument  1 = /home/hvandam/nwchem-1-wfn1/QA/tests/wfn1-h2-6-31g-wfn1c14e/input-wf-6-31g-5.388692.nw



============================== echo of input deck ==============================
echo
start wfn1_dat
geometry units au noautoz
  H 0 0 -2.69434600000000000000
  H 0 0  2.69434600000000000000
  symmetry cs
end
basis
  H library 6-31g
end
set wfn1:input_vectors "atomic"
set wfn1:solver "monte-carlo"
set wfn1:print_error F
set wfn1:t_initial 0.1
#set wfn1:corr_expr "wfn1_mx"
set wfn1:corr_expr "wfn1c14"
#
set wfn1:fcd00  0.198826
set wfn1:fcd01  0.294438
set wfn1:fcd11  0.247007
set wfn1:fcd05  0.020225
set wfn1:fcd51  -0.098842
set wfn1:fcd55  -0.201236
#
set wfn1:rcd00  0.884548
set wfn1:rcd01  1.211432
set wfn1:rcd11  0.255064
set wfn1:rcd05  0.988291
set wfn1:rcd51  0.535281
set wfn1:rcd55  0.701049
#
set wfn1:fco00  -0.005884
set wfn1:fco01  0.063203
set wfn1:fco11  0.357171
set wfn1:fco05  0.019518
set wfn1:fco51  0.871725
set wfn1:fco55  1.051801
#
set wfn1:rco00  1.033050
set wfn1:rco01  0.850461
set wfn1:rco11  0.110139
set wfn1:rco05  0.985630
set wfn1:rco51  0.139729
set wfn1:rco55  0.918333
#
set wfn1:t_bath 0.0
set wfn1:maxit  20000
task wfn1 energy
================================================================================


                                         
                                         


              Northwest Computational Chemistry Package (NWChem) 6.8
              ------------------------------------------------------


                    Environmental Molecular Sciences Laboratory
                       Pacific Northwest National Laboratory
                                Richland, WA 99352

                              Copyright (c) 1994-2015
                       Pacific Northwest National Laboratory
                            Battelle Memorial Institute

             NWChem is an open-source computational chemistry package
                        distributed under the terms of the
                      Educational Community License (ECL) 2.0
             A copy of the license is included with this distribution
                              in the LICENSE.TXT file

                                  ACKNOWLEDGMENT
                                  --------------

            This software and its documentation were developed at the
            EMSL at Pacific Northwest National Laboratory, a multiprogram
            national laboratory, operated for the U.S. Department of Energy
            by Battelle under Contract Number DE-AC05-76RL01830. Support
            for this work was provided by the Department of Energy Office
            of Biological and Environmental Research, Office of Basic
            Energy Sciences, and the Office of Advanced Scientific Computing.


           Job information
           ---------------

    hostname        = node023
    program         = /home/hvandam/nwchem-1-wfn1/bin/LINUX64/nwchem
    date            = Thu Jun 17 23:50:57 2021

    compiled        = Sun_Jun_13_23:38:55_2021
    source          = /home/hvandam/nwchem-1-wfn1
    nwchem branch   = Development
    nwchem revision = nwchem_on_git-124-gad72d19fff205e319ffbbf2bca37a04ded6ad57b
    ga revision     = nwchem_on_git-124-gad72d19
    use scalapack   = F
    input           = /home/hvandam/nwchem-1-wfn1/QA/tests/wfn1-h2-6-31g-wfn1c14e/input-wf-6-31g-5.388692.nw
    prefix          = wfn1_dat.
    data base       = ./wfn1_dat.db
    status          = startup
    nproc           =        1
    time left       =     -1s



           Memory information
           ------------------

    heap     =   13107196 doubles =    100.0 Mbytes
    stack    =   13107201 doubles =    100.0 Mbytes
    global   =   26214400 doubles =    200.0 Mbytes (distinct from heap & stack)
    total    =   52428797 doubles =    400.0 Mbytes
    verify   = yes
    hardfail = no 


           Directory information
           ---------------------

  0 permanent = .
  0 scratch   = .




                                NWChem Input Module
                                -------------------


 Turning off AUTOSYM since
 SYMMETRY directive was detected!



                             Geometry "geometry" -> ""
                             -------------------------

 Output coordinates in a.u. (scale by  1.000000000 to convert to a.u.)

  No.       Tag          Charge          X              Y              Z
 ---- ---------------- ---------- -------------- -------------- --------------
    1 H                    1.0000     0.00000000     0.00000000    -2.69434600
    2 H                    1.0000     0.00000000     0.00000000     2.69434600

      Atomic Mass 
      ----------- 

      H                  1.007825


 Effective nuclear repulsion energy (a.u.)       0.1855737904

            Nuclear Dipole moment (a.u.) 
            ----------------------------
        X                 Y               Z
 ---------------- ---------------- ----------------
     0.0000000000     0.0000000000     0.0000000000

      Symmetry information
      --------------------

 Group name             Cs        
 Group number              2
 Group order               2
 No. of unique centers     1

      Symmetry unique atoms

     1


            XYZ format geometry
            -------------------
     2
 geometry
 H                     0.00000000     0.00000000    -1.42578660
 H                     0.00000000     0.00000000     1.42578660

                      Basis "ao basis" -> "" (cartesian)
                      -----
  H (Hydrogen)
  ------------
            Exponent  Coefficients 
       -------------- ---------------------------------------------------------
  1 S  1.87311370E+01  0.033495
  1 S  2.82539370E+00  0.234727
  1 S  6.40121700E-01  0.813757

  2 S  1.61277800E-01  1.000000



 Summary of "ao basis" -> "" (cartesian)
 ------------------------------------------------------------------------------
       Tag                 Description            Shells   Functions and Types
 ---------------- ------------------------------  ------  ---------------------
 H                           6-31g                   2        2   2s



                                NWChem WFN1 Module
                                ------------------



          No. of electrons :     2
           Alpha electrons :     1
            Beta electrons :     1
          Charge           :     0
          Spin multiplicity:     1

 HvD: wfn1_inpdft
 HvD: nquad_task =                     1
 HvD: iangquad   =                     0
 HvD: gridtype   = user      
 HvD: leb        =  T
 HvD: radgrid    = murakn    
 HvD: trunc_neigh=  T
 HvD: lssw       =  T
 HvD: whichssw   = erf1    
 HvD: mxnrad     =                     0
 HvD: mxnang     =                     0
 HVD: wfn1: movecs_in  = atomic                                                                                                                                                                                                                                                          
 HVD: wfn1: movecs_out = ./wfn1_dat.movecs                                                                                                                                                                                                                                               

      Superposition of Atomic Density Guess
      -------------------------------------

 Sum of atomic energies:          -0.99646508

      Non-variational initial energy
      ------------------------------

 Total energy =      -0.682794
 1-e energy   =      -1.367611
 2-e energy   =       0.499244
 HOMO         =      -0.214320
 LUMO         =      -0.166807

 iteration              energy           error
 ---------              ------           -----
         0         -0.98366869        0.020000
         1         -0.98429912        0.020000
         2         -0.98459127        0.020000
         3         -0.98505467        0.020000
         4         -0.98532892        0.020000
         5         -0.98634343        0.020000
         6         -0.98713669        0.020000
         7         -0.98739487        0.020000
         8         -0.98841185        0.020000
         9         -0.98930262        0.020000
        10         -0.98977166        0.020000
        11         -0.98977586        0.020000
        12         -0.98981654        0.020000
        13         -0.98983332        0.020000
        14         -0.99038349        0.020000
        15         -0.99064669        0.020000
        16         -0.99067773        0.020000
        17         -0.99082095        0.020000
        18         -0.99117398        0.020000
        19         -0.99119080        0.020000
        20         -0.99221059        0.020000
        21         -0.99272609        0.020000
        22         -0.99322788        0.020000
        23         -0.99385515        0.020000
        24         -0.99389167        0.020000
        25         -0.99422903        0.020000
        26         -0.99431988        0.020000
        27         -0.99433450        0.020000
        28         -0.99441188        0.020000
        29         -0.99470199        0.020000
        30         -0.99482765        0.020000
        31         -0.99491881        0.020000
        32         -0.99493052        0.020000
        33         -0.99510693        0.020000
        34         -0.99550500        0.020000
        35         -0.99560782        0.020000
        36         -0.99568801        0.019934
        37         -0.99569386        0.019429
        38         -0.99577333        0.016871
        39         -0.99577986        0.016443
        40         -0.99578010        0.011664
        41         -0.99579899        0.011664
        42         -0.99580608        0.009840
        43         -0.99580741        0.008572
        44         -0.99581180        0.006825
        45         -0.99581500        0.005594
        46         -0.99581513        0.004857
        47         -0.99581544        0.002109
        48         -0.99581586        0.002109
        49         -0.99581614        0.002055
        50         -0.99581617        0.001843
        51         -0.99581625        0.001385
        52         -0.99581628        0.001350
        53         -0.99581630        0.001172
        54         -0.99581639        0.000856
        55         -0.99581639        0.000810
        56         -0.99581642        0.000767
        57         -0.99581644        0.000647
        58         -0.99581645        0.000631
        59         -0.99581645        0.000422
        60         -0.99581646        0.000412
        61         -0.99581646        0.000401
        62         -0.99581646        0.000401
        63         -0.99581647        0.000391
        64         -0.99581647        0.000361
        65         -0.99581647        0.000352
        66         -0.99581648        0.000297
        67         -0.99581648        0.000297
        68         -0.99581648        0.000297
        69         -0.99581648        0.000230
        70         -0.99581648        0.000230
        71         -0.99581648        0.000189
        72         -0.99581648        0.000156
        73         -0.99581648        0.000152
        74         -0.99581648        0.000132
        75         -0.99581648        0.000132
        76         -0.99581648        0.000108
        77         -0.99581648        0.000094
        78         -0.99581648        0.000094
        79         -0.99581648        0.000063
        80         -0.99581648        0.000055
        81         -0.99581648        0.000030
        82         -0.99581648        0.000028
        83         -0.99581648        0.000016
        84         -0.99581648        0.000016
        85         -0.99581648        0.000015
        86         -0.99581648        0.000014
        87         -0.99581648        0.000011
        88         -0.99581648        0.000006
        89         -0.99581648        0.000004
        90         -0.99581648        0.000004
        91         -0.99581648        0.000003
        92         -0.99581648        0.000003
        93         -0.99581648        0.000002
        94         -0.99581648        0.000002
        95         -0.99581648        0.000002
        96         -0.99581648        0.000001
        97         -0.99581648        0.000001
        98         -0.99581648        0.000001
        99         -0.99581648        0.000001
       100         -0.99581648        0.000001
       101         -0.99581648        0.000001
       102         -0.99581648        0.000001
       103         -0.99581648        0.000001
       104         -0.99581648        0.000001

 Reached Convergence

 WFN1                     :
 --------------------------
 Total WFN1 energy  =          -0.9958164850
 1-Electron energy  =          -1.3699658932
 2-Electron energy  =           0.4064202472
 Correlation energy =          -0.2178446294
 DFT XC energy      =           0.0000000000
 Entropy energy     =           0.0000000000
 Nuclear energy     =           0.1855737904

 conventional Hartree-Fock:
 --------------------------
 Total SCF energy  =          -0.9047164339
 2-Electron energy =           0.4975202983

                WFN1 Final Natural orbital energies and occupations
                ---------------------------------------------------

              Alpha       Beta            Alpha       Beta  
            --------    --------        --------    --------
       1      0.0000      0.0000          0.5615      0.5615
       2      0.0000      0.0000          0.4385      0.4385
       3      0.0000      0.0000          0.0000      0.0000
       4      0.0000      0.0000          0.0000      0.0000

             WFN1 Final Correlation function energies and occupations
             --------------------------------------------------------

              Alpha       Beta            Alpha       Beta  
            --------    --------        --------    --------
       1      0.0000      0.0000          1.0000      1.0000
       2      0.0000      0.0000          0.0000      0.0000
       3      0.0000      0.0000          0.0000      0.0000
       4      0.0000      0.0000          0.0000      0.0000

                WFN1 Final alpha-alpha 2-matrix occupation numbers
                --------------------------------------------------


 global array: g_momo1[1:4,1:4],  handle: -990 

            1           2           3           4  
       ----------- ----------- ----------- -----------
   1       0.00000     0.00000    -0.00000     0.00000
   2       0.00000     0.00000    -0.00000     0.00000
   3       0.00000     0.00000     0.00000     0.00000
   4       0.00000     0.00000    -0.00000     0.00000

                 WFN1 Final beta-beta 2-matrix occupation numbers
                 ------------------------------------------------


 global array: g_momo2[1:4,1:4],  handle: -989 

            1           2           3           4  
       ----------- ----------- ----------- -----------
   1       0.00000     0.00000    -0.00000     0.00000
   2       0.00000     0.00000    -0.00000     0.00000
   3       0.00000     0.00000     0.00000     0.00000
   4       0.00000     0.00000    -0.00000     0.00000

                  WFN1 Final alpha Correlation Function Analysis
                  ----------------------------------------------


 global array: Ca[1:4,1:4],  handle: -976 

                     1                       2                       3                       4  
       ----------------------- ----------------------- ----------------------- -----------------------
   1       0.65302,   -0.36751     0.57647,   -0.31918    -0.01082,    0.01949     0.00351,    0.06166
   2      -0.47835,    0.45791     0.54221,   -0.51185    -0.00668,    0.02433     0.02139,    0.06644
   3       0.00002,   -0.00024     0.02531,    0.02645    -0.54191,    0.60140     0.41821,   -0.41038
   4      -0.00011,   -0.00005    -0.07213,   -0.05724    -0.54210,    0.22281    -0.76295,    0.25674

                   WFN1 Final beta Correlation Function Analysis
                   ---------------------------------------------


 global array: Cb[1:4,1:4],  handle: -975 

                     1                       2                       3                       4  
       ----------------------- ----------------------- ----------------------- -----------------------
   1       0.65302,   -0.36751     0.57647,   -0.31918    -0.01082,    0.01949     0.00351,    0.06166
   2      -0.47835,    0.45791     0.54221,   -0.51185    -0.00668,    0.02433     0.02139,    0.06644
   3       0.00002,   -0.00024     0.02531,    0.02645    -0.54191,    0.60140     0.41821,   -0.41038
   4      -0.00011,   -0.00005    -0.07213,   -0.05724    -0.54210,    0.22281    -0.76295,    0.25674

                     WFN1 Final Alpha Natural Orbital Analysis
                     -----------------------------------------

 Vector    1  Occ=5.615000D-01  E= 0.000000D+00
              MO Center=  0.0D+00,  0.0D+00,  4.3D-07, r^2= 2.8D+00
   Bfn.  Coefficient  Atom+Function         Bfn.  Coefficient  Atom+Function  
  ----- ------------  ---------------      ----- ------------  ---------------
     2     -0.463619  1 H  s                  4     -0.463620  2 H  s          
     1     -0.289419  1 H  s                  3     -0.289419  2 H  s          

 Vector    2  Occ=4.384999D-01  E= 0.000000D+00
              MO Center=  0.0D+00,  0.0D+00, -4.7D-07, r^2= 2.9D+00
   Bfn.  Coefficient  Atom+Function         Bfn.  Coefficient  Atom+Function  
  ----- ------------  ---------------      ----- ------------  ---------------
     2     -0.477579  1 H  s                  4      0.477580  2 H  s          
     1     -0.315809  1 H  s                  3      0.315808  2 H  s          

 Vector    3  Occ=5.891168D-08  E= 0.000000D+00
              MO Center=  0.0D+00,  0.0D+00,  7.8D-02, r^2= 3.0D+00
   Bfn.  Coefficient  Atom+Function         Bfn.  Coefficient  Atom+Function  
  ----- ------------  ---------------      ----- ------------  ---------------
     3     -0.900944  2 H  s                  1     -0.851434  1 H  s          
     4      0.773945  2 H  s                  2      0.725352  1 H  s          

 Vector    4  Occ=1.526496D-08  E= 0.000000D+00
              MO Center=  0.0D+00,  0.0D+00, -7.8D-02, r^2= 3.6D+00
   Bfn.  Coefficient  Atom+Function         Bfn.  Coefficient  Atom+Function  
  ----- ------------  ---------------      ----- ------------  ---------------
     1     -0.930911  1 H  s                  2      0.910668  1 H  s          
     3      0.883083  2 H  s                  4     -0.869748  2 H  s          


                     WFN1 Final Beta Natural Orbital Analysis
                     ----------------------------------------

 Vector    1  Occ=5.615000D-01  E= 0.000000D+00
              MO Center=  0.0D+00,  0.0D+00,  4.3D-07, r^2= 2.8D+00
   Bfn.  Coefficient  Atom+Function         Bfn.  Coefficient  Atom+Function  
  ----- ------------  ---------------      ----- ------------  ---------------
     2     -0.463619  1 H  s                  4     -0.463620  2 H  s          
     1     -0.289419  1 H  s                  3     -0.289419  2 H  s          

 Vector    2  Occ=4.384999D-01  E= 0.000000D+00
              MO Center=  0.0D+00,  0.0D+00, -4.7D-07, r^2= 2.9D+00
   Bfn.  Coefficient  Atom+Function         Bfn.  Coefficient  Atom+Function  
  ----- ------------  ---------------      ----- ------------  ---------------
     2     -0.477579  1 H  s                  4      0.477580  2 H  s          
     1     -0.315809  1 H  s                  3      0.315808  2 H  s          

 Vector    3  Occ=5.891168D-08  E= 0.000000D+00
              MO Center=  0.0D+00,  0.0D+00,  7.8D-02, r^2= 3.0D+00
   Bfn.  Coefficient  Atom+Function         Bfn.  Coefficient  Atom+Function  
  ----- ------------  ---------------      ----- ------------  ---------------
     3     -0.900944  2 H  s                  1     -0.851434  1 H  s          
     4      0.773945  2 H  s                  2      0.725352  1 H  s          

 Vector    4  Occ=1.526496D-08  E= 0.000000D+00
              MO Center=  0.0D+00,  0.0D+00, -7.8D-02, r^2= 3.6D+00
   Bfn.  Coefficient  Atom+Function         Bfn.  Coefficient  Atom+Function  
  ----- ------------  ---------------      ----- ------------  ---------------
     1     -0.930911  1 H  s                  2      0.910668  1 H  s          
     3      0.883083  2 H  s                  4     -0.869748  2 H  s          


 Task  times  cpu:      183.8s     wall:      207.3s
 Summary of allocated global arrays
-----------------------------------
  No active global arrays



                         GA Statistics for process    0
                         ------------------------------

       create   destroy   get      put      acc     scatter   gather  read&inc
calls:   61       61     4.63e+07 2.05e+05 1.58e+05    0        0       11     
number of processes/call 1.00e+00 1.00e+00 1.00e+00 0.00e+00 0.00e+00
bytes total:             5.96e+09 3.73e+07 2.62e+07 0.00e+00 0.00e+00 8.80e+01
bytes remote:            0.00e+00 0.00e+00 0.00e+00 0.00e+00 0.00e+00 0.00e+00
Max memory consumed for GA by this process: 12160 bytes
MA_summarize_allocated_blocks: starting scan ...
MA_summarize_allocated_blocks: scan completed: 0 heap blocks, 0 stack blocks
MA usage statistics:

	allocation statistics:
					      heap	     stack
					      ----	     -----
	current number of blocks	         0	         0
	maximum number of blocks	        19	        17
	current total bytes		         0	         0
	maximum total bytes		   3204360	  22508648
	maximum total K-bytes		      3205	     22509
	maximum total M-bytes		         4	        23


                                NWChem Input Module
                                -------------------





                                     CITATION
                                     --------
                Please cite the following reference when publishing
                           results obtained with NWChem:

                 M. Valiev, E.J. Bylaska, N. Govind, K. Kowalski,
              T.P. Straatsma, H.J.J. van Dam, D. Wang, J. Nieplocha,
                        E. Apra, T.L. Windus, W.A. de Jong
                 "NWChem: a comprehensive and scalable open-source
                  solution for large scale molecular simulations"
                      Comput. Phys. Commun. 181, 1477 (2010)
                           doi:10.1016/j.cpc.2010.04.018

                                      AUTHORS
                                      -------
          E. Apra, E. J. Bylaska, W. A. de Jong, N. Govind, K. Kowalski,
       T. P. Straatsma, M. Valiev, H. J. J. van Dam, D. Wang, T. L. Windus,
        J. Hammond, J. Autschbach, K. Bhaskaran-Nair, J. Brabec, K. Lopata,
    S. A. Fischer, S. Krishnamoorthy, M. Jacquelin, W. Ma, M. Klemm, O. Villa,
      Y. Chen, V. Anisimov, F. Aquino, S. Hirata, M. T. Hackler, V. Konjkov,
      T. Risthaus, M. Malagoli, A. Marenich, A. Otero-de-la-Roza, J. Mullin,
        P. Nichols, R. Peverati, J. Pittner, Y. Zhao, P.-D. Fan, A. Fonari,
       M. Williamson, R. J. Harrison, J. R. Rehr, M. Dupuis, D. Silverstein,
    D. M. A. Smith, J. Nieplocha, V. Tipparaju, M. Krishnan, B. E. Van Kuiken,
        A. Vazquez-Mayagoitia, L. Jensen, M. Swart, Q. Wu, T. Van Voorhis,
     A. A. Auer, M. Nooijen, L. D. Crosby, E. Brown, G. Cisneros, G. I. Fann,
   H. Fruchtl, J. Garza, K. Hirao, R. A. Kendall, J. A. Nichols, K. Tsemekhman,
    K. Wolinski, J. Anchell, D. E. Bernholdt, P. Borowski, T. Clark, D. Clerc,
   H. Dachsel, M. J. O. Deegan, K. Dyall, D. Elwood, E. Glendening, M. Gutowski,
   A. C. Hess, J. Jaffe, B. G. Johnson, J. Ju, R. Kobayashi, R. Kutteh, Z. Lin,
   R. Littlefield, X. Long, B. Meng, T. Nakajima, S. Niu, L. Pollack, M. Rosing,
   K. Glaesemann, G. Sandrone, M. Stave, H. Taylor, G. Thomas, J. H. van Lenthe,
                               A. T. Wong, Z. Zhang.

 Total times  cpu:      183.8s     wall:      207.3s
        0.561500        0.438500        0.000000        0.000000        0.561500        0.438500        0.000000        0.000000