 argument  1 = /home/hvandam/nwchem-1-wfn1/QA/tests/wfn1-h2-6-31g-wfn1c14e/input-wf-6-31g-2.388692.nw



============================== echo of input deck ==============================
echo
start wfn1_dat
geometry units au noautoz
  H 0 0 -1.19434600000000000000
  H 0 0  1.19434600000000000000
  symmetry cs
end
basis
  H library 6-31g
end
set wfn1:input_vectors "atomic"
set wfn1:solver "monte-carlo"
set wfn1:print_error F
set wfn1:t_initial 0.1
#set wfn1:corr_expr "wfn1_mx"
set wfn1:corr_expr "wfn1c14"
#
set wfn1:fcd00  0.198826
set wfn1:fcd01  0.294438
set wfn1:fcd11  0.247007
set wfn1:fcd05  0.020225
set wfn1:fcd51  -0.098842
set wfn1:fcd55  -0.201236
#
set wfn1:rcd00  0.884548
set wfn1:rcd01  1.211432
set wfn1:rcd11  0.255064
set wfn1:rcd05  0.988291
set wfn1:rcd51  0.535281
set wfn1:rcd55  0.701049
#
set wfn1:fco00  -0.005884
set wfn1:fco01  0.063203
set wfn1:fco11  0.357171
set wfn1:fco05  0.019518
set wfn1:fco51  0.871725
set wfn1:fco55  1.051801
#
set wfn1:rco00  1.033050
set wfn1:rco01  0.850461
set wfn1:rco11  0.110139
set wfn1:rco05  0.985630
set wfn1:rco51  0.139729
set wfn1:rco55  0.918333
#
set wfn1:t_bath 0.0
set wfn1:maxit  20000
task wfn1 energy
================================================================================


                                         
                                         


              Northwest Computational Chemistry Package (NWChem) 6.8
              ------------------------------------------------------


                    Environmental Molecular Sciences Laboratory
                       Pacific Northwest National Laboratory
                                Richland, WA 99352

                              Copyright (c) 1994-2015
                       Pacific Northwest National Laboratory
                            Battelle Memorial Institute

             NWChem is an open-source computational chemistry package
                        distributed under the terms of the
                      Educational Community License (ECL) 2.0
             A copy of the license is included with this distribution
                              in the LICENSE.TXT file

                                  ACKNOWLEDGMENT
                                  --------------

            This software and its documentation were developed at the
            EMSL at Pacific Northwest National Laboratory, a multiprogram
            national laboratory, operated for the U.S. Department of Energy
            by Battelle under Contract Number DE-AC05-76RL01830. Support
            for this work was provided by the Department of Energy Office
            of Biological and Environmental Research, Office of Basic
            Energy Sciences, and the Office of Advanced Scientific Computing.


           Job information
           ---------------

    hostname        = node023
    program         = /home/hvandam/nwchem-1-wfn1/bin/LINUX64/nwchem
    date            = Thu Jun 17 23:47:25 2021

    compiled        = Sun_Jun_13_23:38:55_2021
    source          = /home/hvandam/nwchem-1-wfn1
    nwchem branch   = Development
    nwchem revision = nwchem_on_git-124-gad72d19fff205e319ffbbf2bca37a04ded6ad57b
    ga revision     = nwchem_on_git-124-gad72d19
    use scalapack   = F
    input           = /home/hvandam/nwchem-1-wfn1/QA/tests/wfn1-h2-6-31g-wfn1c14e/input-wf-6-31g-2.388692.nw
    prefix          = wfn1_dat.
    data base       = ./wfn1_dat.db
    status          = startup
    nproc           =        1
    time left       =     -1s



           Memory information
           ------------------

    heap     =   13107200 doubles =    100.0 Mbytes
    stack    =   13107197 doubles =    100.0 Mbytes
    global   =   26214400 doubles =    200.0 Mbytes (distinct from heap & stack)
    total    =   52428797 doubles =    400.0 Mbytes
    verify   = yes
    hardfail = no 


           Directory information
           ---------------------

  0 permanent = .
  0 scratch   = .




                                NWChem Input Module
                                -------------------


 Turning off AUTOSYM since
 SYMMETRY directive was detected!



                             Geometry "geometry" -> ""
                             -------------------------

 Output coordinates in a.u. (scale by  1.000000000 to convert to a.u.)

  No.       Tag          Charge          X              Y              Z
 ---- ---------------- ---------- -------------- -------------- --------------
    1 H                    1.0000     0.00000000     0.00000000    -1.19434600
    2 H                    1.0000     0.00000000     0.00000000     1.19434600

      Atomic Mass 
      ----------- 

      H                  1.007825


 Effective nuclear repulsion energy (a.u.)       0.4186391548

            Nuclear Dipole moment (a.u.) 
            ----------------------------
        X                 Y               Z
 ---------------- ---------------- ----------------
     0.0000000000     0.0000000000     0.0000000000

      Symmetry information
      --------------------

 Group name             Cs        
 Group number              2
 Group order               2
 No. of unique centers     1

      Symmetry unique atoms

     1


            XYZ format geometry
            -------------------
     2
 geometry
 H                     0.00000000     0.00000000    -0.63202073
 H                     0.00000000     0.00000000     0.63202073

                      Basis "ao basis" -> "" (cartesian)
                      -----
  H (Hydrogen)
  ------------
            Exponent  Coefficients 
       -------------- ---------------------------------------------------------
  1 S  1.87311370E+01  0.033495
  1 S  2.82539370E+00  0.234727
  1 S  6.40121700E-01  0.813757

  2 S  1.61277800E-01  1.000000



 Summary of "ao basis" -> "" (cartesian)
 ------------------------------------------------------------------------------
       Tag                 Description            Shells   Functions and Types
 ---------------- ------------------------------  ------  ---------------------
 H                           6-31g                   2        2   2s



                                NWChem WFN1 Module
                                ------------------



          No. of electrons :     2
           Alpha electrons :     1
            Beta electrons :     1
          Charge           :     0
          Spin multiplicity:     1

 HvD: wfn1_inpdft
 HvD: nquad_task =                     1
 HvD: iangquad   =                     0
 HvD: gridtype   = user      
 HvD: leb        =  T
 HvD: radgrid    = murakn    
 HvD: trunc_neigh=  T
 HvD: lssw       =  T
 HvD: whichssw   = erf1    
 HvD: mxnrad     =                     0
 HvD: mxnang     =                     0
 HVD: wfn1: movecs_in  = atomic                                                                                                                                                                                                                                                          
 HVD: wfn1: movecs_out = ./wfn1_dat.movecs                                                                                                                                                                                                                                               

      Superposition of Atomic Density Guess
      -------------------------------------

 Sum of atomic energies:          -0.99646508

      Non-variational initial energy
      ------------------------------

 Total energy =      -0.757526
 1-e energy   =      -1.812630
 2-e energy   =       0.636465
 HOMO         =      -0.390385
 LUMO         =       0.027594

 iteration              energy           error
 ---------              ------           -----
         0         -1.06654028        0.020000
         1         -1.06768874        0.020000
         2         -1.06852971        0.020000
         3         -1.06993399        0.020000
         4         -1.06995177        0.020000
         5         -1.07007546        0.020000
         6         -1.07009217        0.020000
         7         -1.07201191        0.020000
         8         -1.07238347        0.020000
         9         -1.07271120        0.020000
        10         -1.07364632        0.020000
        11         -1.07471958        0.020000
        12         -1.07474605        0.020000
        13         -1.07500990        0.020000
        14         -1.07858525        0.020000
        15         -1.07924958        0.020000
        16         -1.07989190        0.020000
        17         -1.08026365        0.020000
        18         -1.08113003        0.020000
        19         -1.08241862        0.020000
        20         -1.08268004        0.020000
        21         -1.08283748        0.020000
        22         -1.08288583        0.020000
        23         -1.08336820        0.020000
        24         -1.08354083        0.020000
        25         -1.08407162        0.020000
        26         -1.08418743        0.020000
        27         -1.08472958        0.020000
        28         -1.08474856        0.020000
        29         -1.08501236        0.020000
        30         -1.08505652        0.020000
        31         -1.08509112        0.020000
        32         -1.08515876        0.020000
        33         -1.08528188        0.020000
        34         -1.08556956        0.020000
        35         -1.08558908        0.020000
        36         -1.08573287        0.020000
        37         -1.08579691        0.020000
        38         -1.08580623        0.020000
        39         -1.08585699        0.020000
        40         -1.08624023        0.020000
        41         -1.08637349        0.020000
        42         -1.08638610        0.020000
        43         -1.08649083        0.020000
        44         -1.08715358        0.020000
        45         -1.08718097        0.020000
        46         -1.08726796        0.020000
        47         -1.08735009        0.020000
        48         -1.08737036        0.020000
        49         -1.08739004        0.020000
        50         -1.08751141        0.020000
        51         -1.08751753        0.020000
        52         -1.08757657        0.020000
        53         -1.08766893        0.020000
        54         -1.08769621        0.020000
        55         -1.08775196        0.020000
        56         -1.08776752        0.020000
        57         -1.08780539        0.016924
        58         -1.08782754        0.016924
        59         -1.08784050        0.015126
        60         -1.08784365        0.012801
        61         -1.08785668        0.010492
        62         -1.08786712        0.009110
        63         -1.08786808        0.007466
        64         -1.08786814        0.003337
        65         -1.08786978        0.003337
        66         -1.08786981        0.002897
        67         -1.08787042        0.002752
        68         -1.08787049        0.002390
        69         -1.08787078        0.002329
        70         -1.08787078        0.001515
        71         -1.08787087        0.001435
        72         -1.08787093        0.001320
        73         -1.08787108        0.001320
        74         -1.08787127        0.001320
        75         -1.08787146        0.001286
        76         -1.08787147        0.000945
        77         -1.08787149        0.000690
        78         -1.08787149        0.000673
        79         -1.08787150        0.000520
        80         -1.08787150        0.000507
        81         -1.08787151        0.000480
        82         -1.08787152        0.000480
        83         -1.08787152        0.000468
        84         -1.08787152        0.000420
        85         -1.08787152        0.000386
        86         -1.08787153        0.000386
        87         -1.08787153        0.000376
        88         -1.08787154        0.000376
        89         -1.08787154        0.000376
        90         -1.08787154        0.000376
        91         -1.08787155        0.000309
        92         -1.08787155        0.000242
        93         -1.08787155        0.000153
        94         -1.08787155        0.000122
        95         -1.08787155        0.000122
        96         -1.08787155        0.000112
        97         -1.08787155        0.000109
        98         -1.08787155        0.000053
        99         -1.08787155        0.000050
       100         -1.08787155        0.000048
       101         -1.08787155        0.000048
       102         -1.08787155        0.000043
       103         -1.08787155        0.000041
       104         -1.08787155        0.000037
       105         -1.08787155        0.000029
       106         -1.08787155        0.000026
       107         -1.08787155        0.000020
       108         -1.08787155        0.000017
       109         -1.08787155        0.000015
       110         -1.08787155        0.000015
       111         -1.08787155        0.000015
       112         -1.08787155        0.000015
       113         -1.08787155        0.000013
       114         -1.08787155        0.000010
       115         -1.08787155        0.000008
       116         -1.08787155        0.000006
       117         -1.08787155        0.000004
       118         -1.08787155        0.000004
       119         -1.08787155        0.000004
       120         -1.08787155        0.000004
       121         -1.08787155        0.000004
       122         -1.08787155        0.000003
       123         -1.08787155        0.000003
       124         -1.08787155        0.000003
       125         -1.08787155        0.000002
       126         -1.08787155        0.000002
       127         -1.08787155        0.000002
       128         -1.08787155        0.000002
       129         -1.08787155        0.000001
       130         -1.08787155        0.000001
       131         -1.08787155        0.000001
       132         -1.08787155        0.000001

 Reached Convergence

 WFN1                     :
 --------------------------
 Total WFN1 energy  =          -1.0878715487
 1-Electron energy  =          -1.9145103775
 2-Electron energy  =           0.5146420333
 Correlation energy =          -0.1066423593
 DFT XC energy      =           0.0000000000
 Entropy energy     =           0.0000000000
 Nuclear energy     =           0.4186391548

 conventional Hartree-Fock:
 --------------------------
 Total SCF energy  =          -1.0231323990
 2-Electron energy =           0.5793811830

                WFN1 Final Natural orbital energies and occupations
                ---------------------------------------------------

              Alpha       Beta            Alpha       Beta  
            --------    --------        --------    --------
       1      0.0000      0.0000          0.8913      0.8913
       2      0.0000      0.0000          0.1087      0.1087
       3      0.0000      0.0000          0.0000      0.0000
       4      0.0000      0.0000          0.0000      0.0000

             WFN1 Final Correlation function energies and occupations
             --------------------------------------------------------

              Alpha       Beta            Alpha       Beta  
            --------    --------        --------    --------
       1      0.0000      0.0000          1.0000      1.0000
       2      0.0000      0.0000          0.0000      0.0000
       3      0.0000      0.0000          0.0000      0.0000
       4      0.0000      0.0000          0.0000      0.0000

                WFN1 Final alpha-alpha 2-matrix occupation numbers
                --------------------------------------------------


 global array: g_momo1[1:4,1:4],  handle: -990 

            1           2           3           4  
       ----------- ----------- ----------- -----------
   1      -0.00000     0.00000    -0.00000     0.00000
   2       0.00000     0.00000     0.00000    -0.00000
   3       0.00000    -0.00000    -0.00000     0.00000
   4       0.00000     0.00000     0.00000     0.00000

                 WFN1 Final beta-beta 2-matrix occupation numbers
                 ------------------------------------------------


 global array: g_momo2[1:4,1:4],  handle: -989 

            1           2           3           4  
       ----------- ----------- ----------- -----------
   1      -0.00000     0.00000    -0.00000     0.00000
   2       0.00000     0.00000     0.00000    -0.00000
   3       0.00000    -0.00000    -0.00000     0.00000
   4       0.00000     0.00000     0.00000     0.00000

                  WFN1 Final alpha Correlation Function Analysis
                  ----------------------------------------------


 global array: Ca[1:4,1:4],  handle: -976 

                     1                       2                       3                       4  
       ----------------------- ----------------------- ----------------------- -----------------------
   1       0.51758,   -0.78959    -0.30387,    0.04395    -0.04234,   -0.04411     0.05047,    0.09003
   2      -0.12594,    0.30463    -0.83138,    0.28649    -0.14270,   -0.10159     0.19030,    0.22622
   3       0.00003,    0.00004     0.15037,   -0.00045     0.31652,    0.49496     0.27015,    0.74782
   4      -0.00002,   -0.00004     0.33104,    0.01639    -0.41340,   -0.67045     0.17055,    0.49056

                   WFN1 Final beta Correlation Function Analysis
                   ---------------------------------------------


 global array: Cb[1:4,1:4],  handle: -975 

                     1                       2                       3                       4  
       ----------------------- ----------------------- ----------------------- -----------------------
   1       0.51758,   -0.78959    -0.30387,    0.04395    -0.04234,   -0.04411     0.05047,    0.09003
   2      -0.12594,    0.30463    -0.83138,    0.28649    -0.14270,   -0.10159     0.19030,    0.22622
   3       0.00003,    0.00004     0.15037,   -0.00045     0.31652,    0.49496     0.27015,    0.74782
   4      -0.00002,   -0.00004     0.33104,    0.01639    -0.41340,   -0.67045     0.17055,    0.49056

                     WFN1 Final Alpha Natural Orbital Analysis
                     -----------------------------------------

 Vector    1  Occ=8.913412D-01  E= 0.000000D+00
              MO Center=  0.0D+00,  0.0D+00, -1.5D-07, r^2= 1.1D+00
   Bfn.  Coefficient  Atom+Function         Bfn.  Coefficient  Atom+Function  
  ----- ------------  ---------------      ----- ------------  ---------------
     2      0.368373  1 H  s                  4      0.368373  2 H  s          
     1      0.273133  1 H  s                  3      0.273133  2 H  s          

 Vector    2  Occ=1.086587D-01  E= 0.000000D+00
              MO Center=  0.0D+00,  0.0D+00,  2.9D-07, r^2= 1.5D+00
   Bfn.  Coefficient  Atom+Function         Bfn.  Coefficient  Atom+Function  
  ----- ------------  ---------------      ----- ------------  ---------------
     2      0.717072  1 H  s                  4     -0.717073  2 H  s          
     1      0.374951  1 H  s                  3     -0.374949  2 H  s          

 Vector    3  Occ=2.617731D-09  E= 0.000000D+00
              MO Center=  0.0D+00,  0.0D+00,  5.6D-02, r^2= 1.6D+00
   Bfn.  Coefficient  Atom+Function         Bfn.  Coefficient  Atom+Function  
  ----- ------------  ---------------      ----- ------------  ---------------
     3      0.948936  2 H  s                  1      0.887527  1 H  s          
     4     -0.748382  2 H  s                  2     -0.658314  1 H  s          

 Vector    4  Occ=1.597583D-09  E= 0.000000D+00
              MO Center=  0.0D+00,  0.0D+00, -5.6D-02, r^2= 2.1D+00
   Bfn.  Coefficient  Atom+Function         Bfn.  Coefficient  Atom+Function  
  ----- ------------  ---------------      ----- ------------  ---------------
     2     -1.305790  1 H  s                  4      1.256339  2 H  s          
     1      0.905696  1 H  s                  3     -0.841137  2 H  s          


                     WFN1 Final Beta Natural Orbital Analysis
                     ----------------------------------------

 Vector    1  Occ=8.913412D-01  E= 0.000000D+00
              MO Center=  0.0D+00,  0.0D+00, -1.5D-07, r^2= 1.1D+00
   Bfn.  Coefficient  Atom+Function         Bfn.  Coefficient  Atom+Function  
  ----- ------------  ---------------      ----- ------------  ---------------
     2      0.368373  1 H  s                  4      0.368373  2 H  s          
     1      0.273133  1 H  s                  3      0.273133  2 H  s          

 Vector    2  Occ=1.086587D-01  E= 0.000000D+00
              MO Center=  0.0D+00,  0.0D+00,  2.9D-07, r^2= 1.5D+00
   Bfn.  Coefficient  Atom+Function         Bfn.  Coefficient  Atom+Function  
  ----- ------------  ---------------      ----- ------------  ---------------
     2      0.717072  1 H  s                  4     -0.717073  2 H  s          
     1      0.374951  1 H  s                  3     -0.374949  2 H  s          

 Vector    3  Occ=2.617731D-09  E= 0.000000D+00
              MO Center=  0.0D+00,  0.0D+00,  5.6D-02, r^2= 1.6D+00
   Bfn.  Coefficient  Atom+Function         Bfn.  Coefficient  Atom+Function  
  ----- ------------  ---------------      ----- ------------  ---------------
     3      0.948936  2 H  s                  1      0.887527  1 H  s          
     4     -0.748382  2 H  s                  2     -0.658314  1 H  s          

 Vector    4  Occ=1.597583D-09  E= 0.000000D+00
              MO Center=  0.0D+00,  0.0D+00, -5.6D-02, r^2= 2.1D+00
   Bfn.  Coefficient  Atom+Function         Bfn.  Coefficient  Atom+Function  
  ----- ------------  ---------------      ----- ------------  ---------------
     2     -1.305790  1 H  s                  4      1.256339  2 H  s          
     1      0.905696  1 H  s                  3     -0.841137  2 H  s          


 Task  times  cpu:      195.3s     wall:      220.1s
 Summary of allocated global arrays
-----------------------------------
  No active global arrays



                         GA Statistics for process    0
                         ------------------------------

       create   destroy   get      put      acc     scatter   gather  read&inc
calls:   61       61     4.82e+07 2.13e+05 1.64e+05    0        0       11     
number of processes/call 1.00e+00 1.00e+00 1.00e+00 0.00e+00 0.00e+00
bytes total:             6.20e+09 3.88e+07 2.73e+07 0.00e+00 0.00e+00 8.80e+01
bytes remote:            0.00e+00 0.00e+00 0.00e+00 0.00e+00 0.00e+00 0.00e+00
Max memory consumed for GA by this process: 12160 bytes
MA_summarize_allocated_blocks: starting scan ...
MA_summarize_allocated_blocks: scan completed: 0 heap blocks, 0 stack blocks
MA usage statistics:

	allocation statistics:
					      heap	     stack
					      ----	     -----
	current number of blocks	         0	         0
	maximum number of blocks	        19	        17
	current total bytes		         0	         0
	maximum total bytes		   3204328	  22508616
	maximum total K-bytes		      3205	     22509
	maximum total M-bytes		         4	        23


                                NWChem Input Module
                                -------------------





                                     CITATION
                                     --------
                Please cite the following reference when publishing
                           results obtained with NWChem:

                 M. Valiev, E.J. Bylaska, N. Govind, K. Kowalski,
              T.P. Straatsma, H.J.J. van Dam, D. Wang, J. Nieplocha,
                        E. Apra, T.L. Windus, W.A. de Jong
                 "NWChem: a comprehensive and scalable open-source
                  solution for large scale molecular simulations"
                      Comput. Phys. Commun. 181, 1477 (2010)
                           doi:10.1016/j.cpc.2010.04.018

                                      AUTHORS
                                      -------
          E. Apra, E. J. Bylaska, W. A. de Jong, N. Govind, K. Kowalski,
       T. P. Straatsma, M. Valiev, H. J. J. van Dam, D. Wang, T. L. Windus,
        J. Hammond, J. Autschbach, K. Bhaskaran-Nair, J. Brabec, K. Lopata,
    S. A. Fischer, S. Krishnamoorthy, M. Jacquelin, W. Ma, M. Klemm, O. Villa,
      Y. Chen, V. Anisimov, F. Aquino, S. Hirata, M. T. Hackler, V. Konjkov,
      T. Risthaus, M. Malagoli, A. Marenich, A. Otero-de-la-Roza, J. Mullin,
        P. Nichols, R. Peverati, J. Pittner, Y. Zhao, P.-D. Fan, A. Fonari,
       M. Williamson, R. J. Harrison, J. R. Rehr, M. Dupuis, D. Silverstein,
    D. M. A. Smith, J. Nieplocha, V. Tipparaju, M. Krishnan, B. E. Van Kuiken,
        A. Vazquez-Mayagoitia, L. Jensen, M. Swart, Q. Wu, T. Van Voorhis,
     A. A. Auer, M. Nooijen, L. D. Crosby, E. Brown, G. Cisneros, G. I. Fann,
   H. Fruchtl, J. Garza, K. Hirao, R. A. Kendall, J. A. Nichols, K. Tsemekhman,
    K. Wolinski, J. Anchell, D. E. Bernholdt, P. Borowski, T. Clark, D. Clerc,
   H. Dachsel, M. J. O. Deegan, K. Dyall, D. Elwood, E. Glendening, M. Gutowski,
   A. C. Hess, J. Jaffe, B. G. Johnson, J. Ju, R. Kobayashi, R. Kutteh, Z. Lin,
   R. Littlefield, X. Long, B. Meng, T. Nakajima, S. Niu, L. Pollack, M. Rosing,
   K. Glaesemann, G. Sandrone, M. Stave, H. Taylor, G. Thomas, J. H. van Lenthe,
                               A. T. Wong, Z. Zhang.

 Total times  cpu:      195.3s     wall:      220.1s
        0.891341        0.108659        0.000000        0.000000        0.891341        0.108659        0.000000        0.000000