 argument  1 = /home/hvandam/nwchem-1-wfn1/QA/tests/wfn1-h2-6-31g-wfn1c14e/input-wf-6-31g-6.638692.nw



============================== echo of input deck ==============================
echo
start wfn1_dat
geometry units au noautoz
  H 0 0 -3.31934600000000000000
  H 0 0  3.31934600000000000000
  symmetry cs
end
basis
  H library 6-31g
end
set wfn1:input_vectors "atomic"
set wfn1:solver "monte-carlo"
set wfn1:print_error F
set wfn1:t_initial 0.1
#set wfn1:corr_expr "wfn1_mx"
set wfn1:corr_expr "wfn1c14"
#
set wfn1:fcd00  0.198826
set wfn1:fcd01  0.294438
set wfn1:fcd11  0.247007
set wfn1:fcd05  0.020225
set wfn1:fcd51  -0.098842
set wfn1:fcd55  -0.201236
#
set wfn1:rcd00  0.884548
set wfn1:rcd01  1.211432
set wfn1:rcd11  0.255064
set wfn1:rcd05  0.988291
set wfn1:rcd51  0.535281
set wfn1:rcd55  0.701049
#
set wfn1:fco00  -0.005884
set wfn1:fco01  0.063203
set wfn1:fco11  0.357171
set wfn1:fco05  0.019518
set wfn1:fco51  0.871725
set wfn1:fco55  1.051801
#
set wfn1:rco00  1.033050
set wfn1:rco01  0.850461
set wfn1:rco11  0.110139
set wfn1:rco05  0.985630
set wfn1:rco51  0.139729
set wfn1:rco55  0.918333
#
set wfn1:t_bath 0.0
set wfn1:maxit  20000
task wfn1 energy
================================================================================


                                         
                                         


              Northwest Computational Chemistry Package (NWChem) 6.8
              ------------------------------------------------------


                    Environmental Molecular Sciences Laboratory
                       Pacific Northwest National Laboratory
                                Richland, WA 99352

                              Copyright (c) 1994-2015
                       Pacific Northwest National Laboratory
                            Battelle Memorial Institute

             NWChem is an open-source computational chemistry package
                        distributed under the terms of the
                      Educational Community License (ECL) 2.0
             A copy of the license is included with this distribution
                              in the LICENSE.TXT file

                                  ACKNOWLEDGMENT
                                  --------------

            This software and its documentation were developed at the
            EMSL at Pacific Northwest National Laboratory, a multiprogram
            national laboratory, operated for the U.S. Department of Energy
            by Battelle under Contract Number DE-AC05-76RL01830. Support
            for this work was provided by the Department of Energy Office
            of Biological and Environmental Research, Office of Basic
            Energy Sciences, and the Office of Advanced Scientific Computing.


           Job information
           ---------------

    hostname        = node023
    program         = /home/hvandam/nwchem-1-wfn1/bin/LINUX64/nwchem
    date            = Thu Jun 17 23:51:00 2021

    compiled        = Sun_Jun_13_23:38:55_2021
    source          = /home/hvandam/nwchem-1-wfn1
    nwchem branch   = Development
    nwchem revision = nwchem_on_git-124-gad72d19fff205e319ffbbf2bca37a04ded6ad57b
    ga revision     = nwchem_on_git-124-gad72d19
    use scalapack   = F
    input           = /home/hvandam/nwchem-1-wfn1/QA/tests/wfn1-h2-6-31g-wfn1c14e/input-wf-6-31g-6.638692.nw
    prefix          = wfn1_dat.
    data base       = ./wfn1_dat.db
    status          = startup
    nproc           =        1
    time left       =     -1s



           Memory information
           ------------------

    heap     =   13107194 doubles =    100.0 Mbytes
    stack    =   13107199 doubles =    100.0 Mbytes
    global   =   26214400 doubles =    200.0 Mbytes (distinct from heap & stack)
    total    =   52428793 doubles =    400.0 Mbytes
    verify   = yes
    hardfail = no 


           Directory information
           ---------------------

  0 permanent = .
  0 scratch   = .




                                NWChem Input Module
                                -------------------


 Turning off AUTOSYM since
 SYMMETRY directive was detected!



                             Geometry "geometry" -> ""
                             -------------------------

 Output coordinates in a.u. (scale by  1.000000000 to convert to a.u.)

  No.       Tag          Charge          X              Y              Z
 ---- ---------------- ---------- -------------- -------------- --------------
    1 H                    1.0000     0.00000000     0.00000000    -3.31934600
    2 H                    1.0000     0.00000000     0.00000000     3.31934600

      Atomic Mass 
      ----------- 

      H                  1.007825


 Effective nuclear repulsion energy (a.u.)       0.1506320823

            Nuclear Dipole moment (a.u.) 
            ----------------------------
        X                 Y               Z
 ---------------- ---------------- ----------------
     0.0000000000     0.0000000000     0.0000000000

      Symmetry information
      --------------------

 Group name             Cs        
 Group number              2
 Group order               2
 No. of unique centers     1

      Symmetry unique atoms

     1


            XYZ format geometry
            -------------------
     2
 geometry
 H                     0.00000000     0.00000000    -1.75652238
 H                     0.00000000     0.00000000     1.75652238

                      Basis "ao basis" -> "" (cartesian)
                      -----
  H (Hydrogen)
  ------------
            Exponent  Coefficients 
       -------------- ---------------------------------------------------------
  1 S  1.87311370E+01  0.033495
  1 S  2.82539370E+00  0.234727
  1 S  6.40121700E-01  0.813757

  2 S  1.61277800E-01  1.000000



 Summary of "ao basis" -> "" (cartesian)
 ------------------------------------------------------------------------------
       Tag                 Description            Shells   Functions and Types
 ---------------- ------------------------------  ------  ---------------------
 H                           6-31g                   2        2   2s



                                NWChem WFN1 Module
                                ------------------



          No. of electrons :     2
           Alpha electrons :     1
            Beta electrons :     1
          Charge           :     0
          Spin multiplicity:     1

 HvD: wfn1_inpdft
 HvD: nquad_task =                     1
 HvD: iangquad   =                     0
 HvD: gridtype   = user      
 HvD: leb        =  T
 HvD: radgrid    = murakn    
 HvD: trunc_neigh=  T
 HvD: lssw       =  T
 HvD: whichssw   = erf1    
 HvD: mxnrad     =                     0
 HvD: mxnang     =                     0
 HVD: wfn1: movecs_in  = atomic                                                                                                                                                                                                                                                          
 HVD: wfn1: movecs_out = ./wfn1_dat.movecs                                                                                                                                                                                                                                               

      Superposition of Atomic Density Guess
      -------------------------------------

 Sum of atomic energies:          -0.99646508

      Non-variational initial energy
      ------------------------------

 Total energy =      -0.682158
 1-e energy   =      -1.297730
 2-e energy   =       0.464940
 HOMO         =      -0.199393
 LUMO         =      -0.182858

 iteration              energy           error
 ---------              ------           -----
         0         -0.98353307        0.020000
         1         -0.98492260        0.020000
         2         -0.98551185        0.020000
         3         -0.98680964        0.020000
         4         -0.98742627        0.020000
         5         -0.98814539        0.020000
         6         -0.98938439        0.020000
         7         -0.99009018        0.020000
         8         -0.99017796        0.020000
         9         -0.99039319        0.020000
        10         -0.99057384        0.020000
        11         -0.99061084        0.020000
        12         -0.99079775        0.020000
        13         -0.99087406        0.020000
        14         -0.99165191        0.020000
        15         -0.99182854        0.020000
        16         -0.99256888        0.020000
        17         -0.99257215        0.020000
        18         -0.99301727        0.020000
        19         -0.99327241        0.020000
        20         -0.99343571        0.020000
        21         -0.99366546        0.020000
        22         -0.99372574        0.020000
        23         -0.99402732        0.020000
        24         -0.99404697        0.020000
        25         -0.99419348        0.020000
        26         -0.99434191        0.020000
        27         -0.99471099        0.020000
        28         -0.99482404        0.020000
        29         -0.99490563        0.020000
        30         -0.99515250        0.020000
        31         -0.99525833        0.020000
        32         -0.99531428        0.020000
        33         -0.99537177        0.020000
        34         -0.99539176        0.020000
        35         -0.99554596        0.020000
        36         -0.99555838        0.020000
        37         -0.99559048        0.020000
        38         -0.99565046        0.020000
        39         -0.99566366        0.020000
        40         -0.99566382        0.020000
        41         -0.99568031        0.020000
        42         -0.99569518        0.020000
        43         -0.99571270        0.019680
        44         -0.99573894        0.018221
        45         -0.99574206        0.015822
        46         -0.99575022        0.013347
        47         -0.99575255        0.013347
        48         -0.99576097        0.013347
        49         -0.99577354        0.011589
        50         -0.99577468        0.010128
        51         -0.99578127        0.007185
        52         -0.99578322        0.005721
        53         -0.99578434        0.003943
        54         -0.99578468        0.003843
        55         -0.99578489        0.003535
        56         -0.99578547        0.002897
        57         -0.99578568        0.002897
        58         -0.99578570        0.002665
        59         -0.99578572        0.002665
        60         -0.99578586        0.002532
        61         -0.99578591        0.002476
        62         -0.99578618        0.002213
        63         -0.99578649        0.001663
        64         -0.99578669        0.001621
        65         -0.99578674        0.001491
        66         -0.99578676        0.001491
        67         -0.99578681        0.001491
        68         -0.99578686        0.001491
        69         -0.99578688        0.001491
        70         -0.99578692        0.001089
        71         -0.99578692        0.000904
        72         -0.99578695        0.000741
        73         -0.99578699        0.000741
        74         -0.99578700        0.000662
        75         -0.99578701        0.000514
        76         -0.99578701        0.000409
        77         -0.99578701        0.000376
        78         -0.99578702        0.000376
        79         -0.99578702        0.000336
        80         -0.99578702        0.000329
        81         -0.99578702        0.000329
        82         -0.99578703        0.000294
        83         -0.99578703        0.000176
        84         -0.99578703        0.000148
        85         -0.99578703        0.000133
        86         -0.99578703        0.000129
        87         -0.99578703        0.000126
        88         -0.99578703        0.000103
        89         -0.99578703        0.000056
        90         -0.99578703        0.000056
        91         -0.99578703        0.000052
        92         -0.99578703        0.000032
        93         -0.99578703        0.000032
        94         -0.99578703        0.000023
        95         -0.99578703        0.000019
        96         -0.99578703        0.000011
        97         -0.99578703        0.000011
        98         -0.99578703        0.000008
        99         -0.99578703        0.000008
       100         -0.99578703        0.000007
       101         -0.99578703        0.000007
       102         -0.99578703        0.000007
       103         -0.99578703        0.000005
       104         -0.99578703        0.000005
       105         -0.99578703        0.000004
       106         -0.99578703        0.000003
       107         -0.99578703        0.000003
       108         -0.99578703        0.000003
       109         -0.99578703        0.000003
       110         -0.99578703        0.000003
       111         -0.99578703        0.000003
       112         -0.99578703        0.000003
       113         -0.99578703        0.000002
       114         -0.99578703        0.000002
       115         -0.99578703        0.000002
       116         -0.99578703        0.000001
       117         -0.99578703        0.000001
       118         -0.99578703        0.000001
       119         -0.99578703        0.000001
       120         -0.99578703        0.000001
       121         -0.99578703        0.000001
       122         -0.99578703        0.000001

 Reached Convergence

 WFN1                     :
 --------------------------
 Total WFN1 energy  =          -0.9957870305
 1-Electron energy  =          -1.2979832414
 2-Electron energy  =           0.3899013441
 Correlation energy =          -0.2383372155
 DFT XC energy      =           0.0000000000
 Entropy energy     =           0.0000000000
 Nuclear energy     =           0.1506320823

 conventional Hartree-Fock:
 --------------------------
 Total SCF energy  =          -0.9205673340
 2-Electron energy =           0.4651210406

                WFN1 Final Natural orbital energies and occupations
                ---------------------------------------------------

              Alpha       Beta            Alpha       Beta  
            --------    --------        --------    --------
       1      0.0000      0.0000          0.5169      0.5169
       2      0.0000      0.0000          0.4831      0.4831
       3      0.0000      0.0000          0.0000      0.0000
       4      0.0000      0.0000          0.0000      0.0000

             WFN1 Final Correlation function energies and occupations
             --------------------------------------------------------

              Alpha       Beta            Alpha       Beta  
            --------    --------        --------    --------
       1      0.0000      0.0000          1.0000      1.0000
       2      0.0000      0.0000          0.0000      0.0000
       3      0.0000      0.0000          0.0000      0.0000
       4      0.0000      0.0000          0.0000      0.0000

                WFN1 Final alpha-alpha 2-matrix occupation numbers
                --------------------------------------------------


 global array: g_momo1[1:4,1:4],  handle: -990 

            1           2           3           4  
       ----------- ----------- ----------- -----------
   1       0.00000     0.00000     0.00000     0.00000
   2       0.00000    -0.00000     0.00000     0.00000
   3       0.00000     0.00000     0.00000     0.00000
   4       0.00000    -0.00000     0.00000     0.00000

                 WFN1 Final beta-beta 2-matrix occupation numbers
                 ------------------------------------------------


 global array: g_momo2[1:4,1:4],  handle: -989 

            1           2           3           4  
       ----------- ----------- ----------- -----------
   1       0.00000     0.00000     0.00000     0.00000
   2       0.00000    -0.00000     0.00000     0.00000
   3       0.00000     0.00000     0.00000     0.00000
   4       0.00000    -0.00000     0.00000     0.00000

                  WFN1 Final alpha Correlation Function Analysis
                  ----------------------------------------------


 global array: Ca[1:4,1:4],  handle: -976 

                     1                       2                       3                       4  
       ----------------------- ----------------------- ----------------------- -----------------------
   1      -0.02697,   -0.71847    -0.03243,   -0.62321     0.03533,   -0.29294    -0.02587,   -0.07682
   2      -0.64491,   -0.25916     0.60242,    0.23196     0.26182,    0.15688     0.08356,    0.00822
   3      -0.00017,    0.00002     0.25261,    0.27715    -0.38100,   -0.48393    -0.43645,   -0.53808
   4       0.00009,    0.00009     0.07471,    0.21826    -0.00429,   -0.66363     0.04596,    0.71010

                   WFN1 Final beta Correlation Function Analysis
                   ---------------------------------------------


 global array: Cb[1:4,1:4],  handle: -975 

                     1                       2                       3                       4  
       ----------------------- ----------------------- ----------------------- -----------------------
   1      -0.02697,   -0.71847    -0.03243,   -0.62321     0.03533,   -0.29294    -0.02587,   -0.07682
   2      -0.64491,   -0.25916     0.60242,    0.23196     0.26182,    0.15688     0.08356,    0.00822
   3      -0.00017,    0.00002     0.25261,    0.27715    -0.38100,   -0.48393    -0.43645,   -0.53808
   4       0.00009,    0.00009     0.07471,    0.21826    -0.00429,   -0.66363     0.04596,    0.71010

                     WFN1 Final Alpha Natural Orbital Analysis
                     -----------------------------------------

 Vector    1  Occ=5.169316D-01  E= 0.000000D+00
              MO Center=  0.0D+00,  0.0D+00,  1.7D-07, r^2= 3.9D+00
   Bfn.  Coefficient  Atom+Function         Bfn.  Coefficient  Atom+Function  
  ----- ------------  ---------------      ----- ------------  ---------------
     2     -0.469283  1 H  s                  4     -0.469283  2 H  s          
     1     -0.297971  1 H  s                  3     -0.297971  2 H  s          

 Vector    2  Occ=4.830683D-01  E= 0.000000D+00
              MO Center=  0.0D+00,  0.0D+00, -1.9D-07, r^2= 3.9D+00
   Bfn.  Coefficient  Atom+Function         Bfn.  Coefficient  Atom+Function  
  ----- ------------  ---------------      ----- ------------  ---------------
     2      0.470285  1 H  s                  4     -0.470285  2 H  s          
     1      0.308159  1 H  s                  3     -0.308159  2 H  s          

 Vector    3  Occ=2.849080D-08  E= 0.000000D+00
              MO Center=  0.0D+00,  0.0D+00,  4.0D-01, r^2= 4.0D+00
   Bfn.  Coefficient  Atom+Function         Bfn.  Coefficient  Atom+Function  
  ----- ------------  ---------------      ----- ------------  ---------------
     3     -0.979128  2 H  s                  4      0.880153  2 H  s          
     1     -0.774841  1 H  s                  2      0.688973  1 H  s          

 Vector    4  Occ=1.506625D-08  E= 0.000000D+00
              MO Center=  0.0D+00,  0.0D+00, -4.0D-01, r^2= 4.3D+00
   Bfn.  Coefficient  Atom+Function         Bfn.  Coefficient  Atom+Function  
  ----- ------------  ---------------      ----- ------------  ---------------
     1     -0.990966  1 H  s                  2      0.923240  1 H  s          
     3      0.789747  2 H  s                  4     -0.743227  2 H  s          


                     WFN1 Final Beta Natural Orbital Analysis
                     ----------------------------------------

 Vector    1  Occ=5.169316D-01  E= 0.000000D+00
              MO Center=  0.0D+00,  0.0D+00,  1.7D-07, r^2= 3.9D+00
   Bfn.  Coefficient  Atom+Function         Bfn.  Coefficient  Atom+Function  
  ----- ------------  ---------------      ----- ------------  ---------------
     2     -0.469283  1 H  s                  4     -0.469283  2 H  s          
     1     -0.297971  1 H  s                  3     -0.297971  2 H  s          

 Vector    2  Occ=4.830683D-01  E= 0.000000D+00
              MO Center=  0.0D+00,  0.0D+00, -1.9D-07, r^2= 3.9D+00
   Bfn.  Coefficient  Atom+Function         Bfn.  Coefficient  Atom+Function  
  ----- ------------  ---------------      ----- ------------  ---------------
     2      0.470285  1 H  s                  4     -0.470285  2 H  s          
     1      0.308159  1 H  s                  3     -0.308159  2 H  s          

 Vector    3  Occ=2.849080D-08  E= 0.000000D+00
              MO Center=  0.0D+00,  0.0D+00,  4.0D-01, r^2= 4.0D+00
   Bfn.  Coefficient  Atom+Function         Bfn.  Coefficient  Atom+Function  
  ----- ------------  ---------------      ----- ------------  ---------------
     3     -0.979128  2 H  s                  4      0.880153  2 H  s          
     1     -0.774841  1 H  s                  2      0.688973  1 H  s          

 Vector    4  Occ=1.506625D-08  E= 0.000000D+00
              MO Center=  0.0D+00,  0.0D+00, -4.0D-01, r^2= 4.3D+00
   Bfn.  Coefficient  Atom+Function         Bfn.  Coefficient  Atom+Function  
  ----- ------------  ---------------      ----- ------------  ---------------
     1     -0.990966  1 H  s                  2      0.923240  1 H  s          
     3      0.789747  2 H  s                  4     -0.743227  2 H  s          


 Task  times  cpu:      190.8s     wall:      214.7s
 Summary of allocated global arrays
-----------------------------------
  No active global arrays



                         GA Statistics for process    0
                         ------------------------------

       create   destroy   get      put      acc     scatter   gather  read&inc
calls:   61       61     4.72e+07 2.09e+05 1.61e+05    0        0       11     
number of processes/call 1.00e+00 1.00e+00 1.00e+00 0.00e+00 0.00e+00
bytes total:             6.08e+09 3.80e+07 2.67e+07 0.00e+00 0.00e+00 8.80e+01
bytes remote:            0.00e+00 0.00e+00 0.00e+00 0.00e+00 0.00e+00 0.00e+00
Max memory consumed for GA by this process: 12160 bytes
MA_summarize_allocated_blocks: starting scan ...
MA_summarize_allocated_blocks: scan completed: 0 heap blocks, 0 stack blocks
MA usage statistics:

	allocation statistics:
					      heap	     stack
					      ----	     -----
	current number of blocks	         0	         0
	maximum number of blocks	        19	        17
	current total bytes		         0	         0
	maximum total bytes		   3204376	  22508632
	maximum total K-bytes		      3205	     22509
	maximum total M-bytes		         4	        23


                                NWChem Input Module
                                -------------------





                                     CITATION
                                     --------
                Please cite the following reference when publishing
                           results obtained with NWChem:

                 M. Valiev, E.J. Bylaska, N. Govind, K. Kowalski,
              T.P. Straatsma, H.J.J. van Dam, D. Wang, J. Nieplocha,
                        E. Apra, T.L. Windus, W.A. de Jong
                 "NWChem: a comprehensive and scalable open-source
                  solution for large scale molecular simulations"
                      Comput. Phys. Commun. 181, 1477 (2010)
                           doi:10.1016/j.cpc.2010.04.018

                                      AUTHORS
                                      -------
          E. Apra, E. J. Bylaska, W. A. de Jong, N. Govind, K. Kowalski,
       T. P. Straatsma, M. Valiev, H. J. J. van Dam, D. Wang, T. L. Windus,
        J. Hammond, J. Autschbach, K. Bhaskaran-Nair, J. Brabec, K. Lopata,
    S. A. Fischer, S. Krishnamoorthy, M. Jacquelin, W. Ma, M. Klemm, O. Villa,
      Y. Chen, V. Anisimov, F. Aquino, S. Hirata, M. T. Hackler, V. Konjkov,
      T. Risthaus, M. Malagoli, A. Marenich, A. Otero-de-la-Roza, J. Mullin,
        P. Nichols, R. Peverati, J. Pittner, Y. Zhao, P.-D. Fan, A. Fonari,
       M. Williamson, R. J. Harrison, J. R. Rehr, M. Dupuis, D. Silverstein,
    D. M. A. Smith, J. Nieplocha, V. Tipparaju, M. Krishnan, B. E. Van Kuiken,
        A. Vazquez-Mayagoitia, L. Jensen, M. Swart, Q. Wu, T. Van Voorhis,
     A. A. Auer, M. Nooijen, L. D. Crosby, E. Brown, G. Cisneros, G. I. Fann,
   H. Fruchtl, J. Garza, K. Hirao, R. A. Kendall, J. A. Nichols, K. Tsemekhman,
    K. Wolinski, J. Anchell, D. E. Bernholdt, P. Borowski, T. Clark, D. Clerc,
   H. Dachsel, M. J. O. Deegan, K. Dyall, D. Elwood, E. Glendening, M. Gutowski,
   A. C. Hess, J. Jaffe, B. G. Johnson, J. Ju, R. Kobayashi, R. Kutteh, Z. Lin,
   R. Littlefield, X. Long, B. Meng, T. Nakajima, S. Niu, L. Pollack, M. Rosing,
   K. Glaesemann, G. Sandrone, M. Stave, H. Taylor, G. Thomas, J. H. van Lenthe,
                               A. T. Wong, Z. Zhang.

 Total times  cpu:      190.8s     wall:      214.7s
        0.516932        0.483068        0.000000        0.000000        0.516932        0.483068        0.000000        0.000000