 argument  1 = /home/hvandam/nwchem-1-wfn1/QA/tests/wfn1-h2-6-31g-wfn1c14e/input-wf-6-31g-3.138692.nw



============================== echo of input deck ==============================
echo
start wfn1_dat
geometry units au noautoz
  H 0 0 -1.56934600000000000000
  H 0 0  1.56934600000000000000
  symmetry cs
end
basis
  H library 6-31g
end
set wfn1:input_vectors "atomic"
set wfn1:solver "monte-carlo"
set wfn1:print_error F
set wfn1:t_initial 0.1
#set wfn1:corr_expr "wfn1_mx"
set wfn1:corr_expr "wfn1c14"
#
set wfn1:fcd00  0.198826
set wfn1:fcd01  0.294438
set wfn1:fcd11  0.247007
set wfn1:fcd05  0.020225
set wfn1:fcd51  -0.098842
set wfn1:fcd55  -0.201236
#
set wfn1:rcd00  0.884548
set wfn1:rcd01  1.211432
set wfn1:rcd11  0.255064
set wfn1:rcd05  0.988291
set wfn1:rcd51  0.535281
set wfn1:rcd55  0.701049
#
set wfn1:fco00  -0.005884
set wfn1:fco01  0.063203
set wfn1:fco11  0.357171
set wfn1:fco05  0.019518
set wfn1:fco51  0.871725
set wfn1:fco55  1.051801
#
set wfn1:rco00  1.033050
set wfn1:rco01  0.850461
set wfn1:rco11  0.110139
set wfn1:rco05  0.985630
set wfn1:rco51  0.139729
set wfn1:rco55  0.918333
#
set wfn1:t_bath 0.0
set wfn1:maxit  20000
task wfn1 energy
================================================================================


                                         
                                         


              Northwest Computational Chemistry Package (NWChem) 6.8
              ------------------------------------------------------


                    Environmental Molecular Sciences Laboratory
                       Pacific Northwest National Laboratory
                                Richland, WA 99352

                              Copyright (c) 1994-2015
                       Pacific Northwest National Laboratory
                            Battelle Memorial Institute

             NWChem is an open-source computational chemistry package
                        distributed under the terms of the
                      Educational Community License (ECL) 2.0
             A copy of the license is included with this distribution
                              in the LICENSE.TXT file

                                  ACKNOWLEDGMENT
                                  --------------

            This software and its documentation were developed at the
            EMSL at Pacific Northwest National Laboratory, a multiprogram
            national laboratory, operated for the U.S. Department of Energy
            by Battelle under Contract Number DE-AC05-76RL01830. Support
            for this work was provided by the Department of Energy Office
            of Biological and Environmental Research, Office of Basic
            Energy Sciences, and the Office of Advanced Scientific Computing.


           Job information
           ---------------

    hostname        = node023
    program         = /home/hvandam/nwchem-1-wfn1/bin/LINUX64/nwchem
    date            = Thu Jun 17 23:47:25 2021

    compiled        = Sun_Jun_13_23:38:55_2021
    source          = /home/hvandam/nwchem-1-wfn1
    nwchem branch   = Development
    nwchem revision = nwchem_on_git-124-gad72d19fff205e319ffbbf2bca37a04ded6ad57b
    ga revision     = nwchem_on_git-124-gad72d19
    use scalapack   = F
    input           = /home/hvandam/nwchem-1-wfn1/QA/tests/wfn1-h2-6-31g-wfn1c14e/input-wf-6-31g-3.138692.nw
    prefix          = wfn1_dat.
    data base       = ./wfn1_dat.db
    status          = startup
    nproc           =        1
    time left       =     -1s



           Memory information
           ------------------

    heap     =   13107198 doubles =    100.0 Mbytes
    stack    =   13107195 doubles =    100.0 Mbytes
    global   =   26214400 doubles =    200.0 Mbytes (distinct from heap & stack)
    total    =   52428793 doubles =    400.0 Mbytes
    verify   = yes
    hardfail = no 


           Directory information
           ---------------------

  0 permanent = .
  0 scratch   = .




                                NWChem Input Module
                                -------------------


 Turning off AUTOSYM since
 SYMMETRY directive was detected!



                             Geometry "geometry" -> ""
                             -------------------------

 Output coordinates in a.u. (scale by  1.000000000 to convert to a.u.)

  No.       Tag          Charge          X              Y              Z
 ---- ---------------- ---------- -------------- -------------- --------------
    1 H                    1.0000     0.00000000     0.00000000    -1.56934600
    2 H                    1.0000     0.00000000     0.00000000     1.56934600

      Atomic Mass 
      ----------- 

      H                  1.007825


 Effective nuclear repulsion energy (a.u.)       0.3186040554

            Nuclear Dipole moment (a.u.) 
            ----------------------------
        X                 Y               Z
 ---------------- ---------------- ----------------
     0.0000000000     0.0000000000     0.0000000000

      Symmetry information
      --------------------

 Group name             Cs        
 Group number              2
 Group order               2
 No. of unique centers     1

      Symmetry unique atoms

     1


            XYZ format geometry
            -------------------
     2
 geometry
 H                     0.00000000     0.00000000    -0.83046220
 H                     0.00000000     0.00000000     0.83046220

                      Basis "ao basis" -> "" (cartesian)
                      -----
  H (Hydrogen)
  ------------
            Exponent  Coefficients 
       -------------- ---------------------------------------------------------
  1 S  1.87311370E+01  0.033495
  1 S  2.82539370E+00  0.234727
  1 S  6.40121700E-01  0.813757

  2 S  1.61277800E-01  1.000000



 Summary of "ao basis" -> "" (cartesian)
 ------------------------------------------------------------------------------
       Tag                 Description            Shells   Functions and Types
 ---------------- ------------------------------  ------  ---------------------
 H                           6-31g                   2        2   2s



                                NWChem WFN1 Module
                                ------------------



          No. of electrons :     2
           Alpha electrons :     1
            Beta electrons :     1
          Charge           :     0
          Spin multiplicity:     1

 HvD: wfn1_inpdft
 HvD: nquad_task =                     1
 HvD: iangquad   =                     0
 HvD: gridtype   = user      
 HvD: leb        =  T
 HvD: radgrid    = murakn    
 HvD: trunc_neigh=  T
 HvD: lssw       =  T
 HvD: whichssw   = erf1    
 HvD: mxnrad     =                     0
 HvD: mxnang     =                     0
 HVD: wfn1: movecs_in  = atomic                                                                                                                                                                                                                                                          
 HVD: wfn1: movecs_out = ./wfn1_dat.movecs                                                                                                                                                                                                                                               

      Superposition of Atomic Density Guess
      -------------------------------------

 Sum of atomic energies:          -0.99646508

      Non-variational initial energy
      ------------------------------

 Total energy =      -0.711836
 1-e energy   =      -1.630357
 2-e energy   =       0.599916
 HOMO         =      -0.310610
 LUMO         =      -0.057163

 iteration              energy           error
 ---------              ------           -----
         0         -1.02084879        0.020000
         1         -1.02191587        0.020000
         2         -1.02233480        0.020000
         3         -1.02324915        0.020000
         4         -1.02463757        0.020000
         5         -1.02562056        0.020000
         6         -1.02583766        0.020000
         7         -1.02659482        0.020000
         8         -1.02690904        0.020000
         9         -1.02806164        0.020000
        10         -1.02896131        0.020000
        11         -1.03033273        0.020000
        12         -1.03180169        0.020000
        13         -1.03284423        0.020000
        14         -1.03368898        0.020000
        15         -1.03536993        0.020000
        16         -1.03548650        0.020000
        17         -1.03549911        0.020000
        18         -1.03606302        0.020000
        19         -1.03620734        0.020000
        20         -1.03657218        0.020000
        21         -1.03667384        0.020000
        22         -1.03726656        0.020000
        23         -1.03737442        0.020000
        24         -1.03743217        0.020000
        25         -1.03789801        0.020000
        26         -1.03790492        0.020000
        27         -1.03803078        0.020000
        28         -1.03867510        0.020000
        29         -1.03896110        0.020000
        30         -1.03912562        0.020000
        31         -1.03938657        0.020000
        32         -1.03972515        0.020000
        33         -1.03985135        0.020000
        34         -1.03993207        0.020000
        35         -1.03997747        0.020000
        36         -1.03997880        0.020000
        37         -1.04052498        0.020000
        38         -1.04084205        0.020000
        39         -1.04099198        0.020000
        40         -1.04112054        0.020000
        41         -1.04126397        0.020000
        42         -1.04138315        0.020000
        43         -1.04140615        0.020000
        44         -1.04150307        0.020000
        45         -1.04154542        0.020000
        46         -1.04209491        0.020000
        47         -1.04216809        0.020000
        48         -1.04230012        0.020000
        49         -1.04268806        0.020000
        50         -1.04269831        0.019998
        51         -1.04280664        0.019743
        52         -1.04281523        0.018162
        53         -1.04281562        0.014462
        54         -1.04283796        0.011853
        55         -1.04284754        0.011552
        56         -1.04285114        0.008435
        57         -1.04285135        0.006159
        58         -1.04285240        0.004497
        59         -1.04285240        0.004497
        60         -1.04285443        0.004383
        61         -1.04285450        0.004383
        62         -1.04285468        0.002779
        63         -1.04285476        0.002779
        64         -1.04285520        0.002157
        65         -1.04285564        0.001990
        66         -1.04285581        0.001831
        67         -1.04285589        0.001545
        68         -1.04285598        0.001341
        69         -1.04285601        0.001270
        70         -1.04285605        0.001270
        71         -1.04285611        0.000982
        72         -1.04285612        0.000856
        73         -1.04285614        0.000787
        74         -1.04285614        0.000592
        75         -1.04285615        0.000499
        76         -1.04285616        0.000364
        77         -1.04285616        0.000364
        78         -1.04285616        0.000316
        79         -1.04285616        0.000225
        80         -1.04285616        0.000213
        81         -1.04285616        0.000185
        82         -1.04285617        0.000161
        83         -1.04285617        0.000148
        84         -1.04285617        0.000140
        85         -1.04285617        0.000118
        86         -1.04285617        0.000112
        87         -1.04285617        0.000071
        88         -1.04285617        0.000071
        89         -1.04285617        0.000065
        90         -1.04285617        0.000065
        91         -1.04285617        0.000055
        92         -1.04285617        0.000055
        93         -1.04285617        0.000052
        94         -1.04285617        0.000052
        95         -1.04285617        0.000046
        96         -1.04285617        0.000042
        97         -1.04285617        0.000034
        98         -1.04285617        0.000032
        99         -1.04285617        0.000031
       100         -1.04285617        0.000028
       101         -1.04285617        0.000023
       102         -1.04285617        0.000023
       103         -1.04285617        0.000022
       104         -1.04285617        0.000022
       105         -1.04285617        0.000021
       106         -1.04285617        0.000019
       107         -1.04285617        0.000019
       108         -1.04285617        0.000014
       109         -1.04285617        0.000010
       110         -1.04285617        0.000009
       111         -1.04285617        0.000008
       112         -1.04285617        0.000007
       113         -1.04285617        0.000004
       114         -1.04285617        0.000003
       115         -1.04285617        0.000003
       116         -1.04285617        0.000003
       117         -1.04285617        0.000002
       118         -1.04285617        0.000002
       119         -1.04285617        0.000002
       120         -1.04285617        0.000002
       121         -1.04285617        0.000002
       122         -1.04285617        0.000001
       123         -1.04285617        0.000001
       124         -1.04285617        0.000001

 Reached Convergence

 WFN1                     :
 --------------------------
 Total WFN1 energy  =          -1.0428561688
 1-Electron energy  =          -1.6870680496
 2-Electron energy  =           0.4656232703
 Correlation energy =          -0.1400154449
 DFT XC energy      =           0.0000000000
 Entropy energy     =           0.0000000000
 Nuclear energy     =           0.3186040554

 conventional Hartree-Fock:
 --------------------------
 Total SCF energy  =          -0.9567463669
 2-Electron energy =           0.5517330722

                WFN1 Final Natural orbital energies and occupations
                ---------------------------------------------------

              Alpha       Beta            Alpha       Beta  
            --------    --------        --------    --------
       1      0.0000      0.0000          0.8181      0.8181
       2      0.0000      0.0000          0.1819      0.1819
       3      0.0000      0.0000          0.0000      0.0000
       4      0.0000      0.0000          0.0000      0.0000

             WFN1 Final Correlation function energies and occupations
             --------------------------------------------------------

              Alpha       Beta            Alpha       Beta  
            --------    --------        --------    --------
       1      0.0000      0.0000          1.0000      1.0000
       2      0.0000      0.0000          0.0000      0.0000
       3      0.0000      0.0000          0.0000      0.0000
       4      0.0000      0.0000          0.0000      0.0000

                WFN1 Final alpha-alpha 2-matrix occupation numbers
                --------------------------------------------------


 global array: g_momo1[1:4,1:4],  handle: -990 

            1           2           3           4  
       ----------- ----------- ----------- -----------
   1       0.00000     0.00000     0.00000     0.00000
   2       0.00000     0.00000     0.00000     0.00000
   3       0.00000     0.00000     0.00000     0.00000
   4       0.00000     0.00000     0.00000     0.00000

                 WFN1 Final beta-beta 2-matrix occupation numbers
                 ------------------------------------------------


 global array: g_momo2[1:4,1:4],  handle: -989 

            1           2           3           4  
       ----------- ----------- ----------- -----------
   1       0.00000     0.00000     0.00000     0.00000
   2       0.00000     0.00000     0.00000     0.00000
   3       0.00000     0.00000     0.00000     0.00000
   4       0.00000     0.00000     0.00000     0.00000

                  WFN1 Final alpha Correlation Function Analysis
                  ----------------------------------------------


 global array: Ca[1:4,1:4],  handle: -976 

                     1                       2                       3                       4  
       ----------------------- ----------------------- ----------------------- -----------------------
   1      -0.32509,   -0.84404     0.16206,    0.38538     0.04110,   -0.04597    -0.05726,    0.00725
   2      -0.24680,    0.34786    -0.49083,    0.73828     0.12951,    0.01843    -0.08015,   -0.09262
   3      -0.00000,   -0.00009    -0.07342,   -0.02670    -0.56019,   -0.61298    -0.35021,   -0.42626
   4      -0.00011,    0.00005     0.02755,    0.17996    -0.52862,    0.10049     0.81216,   -0.13309

                   WFN1 Final beta Correlation Function Analysis
                   ---------------------------------------------


 global array: Cb[1:4,1:4],  handle: -975 

                     1                       2                       3                       4  
       ----------------------- ----------------------- ----------------------- -----------------------
   1      -0.32509,   -0.84404     0.16206,    0.38538     0.04110,   -0.04597    -0.05726,    0.00725
   2      -0.24680,    0.34786    -0.49083,    0.73828     0.12951,    0.01843    -0.08015,   -0.09262
   3      -0.00000,   -0.00009    -0.07342,   -0.02670    -0.56019,   -0.61298    -0.35021,   -0.42626
   4      -0.00011,    0.00005     0.02755,    0.17996    -0.52862,    0.10049     0.81216,   -0.13309

                     WFN1 Final Alpha Natural Orbital Analysis
                     -----------------------------------------

 Vector    1  Occ=8.180849D-01  E= 0.000000D+00
              MO Center=  0.0D+00,  0.0D+00,  1.2D-07, r^2= 1.4D+00
   Bfn.  Coefficient  Atom+Function         Bfn.  Coefficient  Atom+Function  
  ----- ------------  ---------------      ----- ------------  ---------------
     2     -0.417677  1 H  s                  4     -0.417677  2 H  s          
     1     -0.255851  1 H  s                  3     -0.255851  2 H  s          

 Vector    2  Occ=1.819151D-01  E= 0.000000D+00
              MO Center=  0.0D+00,  0.0D+00, -1.2D-07, r^2= 1.7D+00
   Bfn.  Coefficient  Atom+Function         Bfn.  Coefficient  Atom+Function  
  ----- ------------  ---------------      ----- ------------  ---------------
     2     -0.566125  1 H  s                  4      0.566125  2 H  s          
     1     -0.363139  1 H  s                  3      0.363140  2 H  s          

 Vector    3  Occ=7.736046D-09  E= 0.000000D+00
              MO Center=  0.0D+00,  0.0D+00,  3.4D-02, r^2= 2.5D+00
   Bfn.  Coefficient  Atom+Function         Bfn.  Coefficient  Atom+Function  
  ----- ------------  ---------------      ----- ------------  ---------------
     4      1.142464  2 H  s                  2     -1.117188  1 H  s          
     3     -0.894650  2 H  s                  1      0.860846  1 H  s          

 Vector    4  Occ=1.446687D-08  E= 0.000000D+00
              MO Center=  0.0D+00,  0.0D+00, -3.4D-02, r^2= 1.8D+00
   Bfn.  Coefficient  Atom+Function         Bfn.  Coefficient  Atom+Function  
  ----- ------------  ---------------      ----- ------------  ---------------
     1      0.938897  1 H  s                  3      0.906743  2 H  s          
     2     -0.710684  1 H  s                  4     -0.669297  2 H  s          


                     WFN1 Final Beta Natural Orbital Analysis
                     ----------------------------------------

 Vector    1  Occ=8.180849D-01  E= 0.000000D+00
              MO Center=  0.0D+00,  0.0D+00,  1.2D-07, r^2= 1.4D+00
   Bfn.  Coefficient  Atom+Function         Bfn.  Coefficient  Atom+Function  
  ----- ------------  ---------------      ----- ------------  ---------------
     2     -0.417677  1 H  s                  4     -0.417677  2 H  s          
     1     -0.255851  1 H  s                  3     -0.255851  2 H  s          

 Vector    2  Occ=1.819151D-01  E= 0.000000D+00
              MO Center=  0.0D+00,  0.0D+00, -1.2D-07, r^2= 1.7D+00
   Bfn.  Coefficient  Atom+Function         Bfn.  Coefficient  Atom+Function  
  ----- ------------  ---------------      ----- ------------  ---------------
     2     -0.566125  1 H  s                  4      0.566125  2 H  s          
     1     -0.363139  1 H  s                  3      0.363140  2 H  s          

 Vector    3  Occ=7.736046D-09  E= 0.000000D+00
              MO Center=  0.0D+00,  0.0D+00,  3.4D-02, r^2= 2.5D+00
   Bfn.  Coefficient  Atom+Function         Bfn.  Coefficient  Atom+Function  
  ----- ------------  ---------------      ----- ------------  ---------------
     4      1.142464  2 H  s                  2     -1.117188  1 H  s          
     3     -0.894650  2 H  s                  1      0.860846  1 H  s          

 Vector    4  Occ=1.446687D-08  E= 0.000000D+00
              MO Center=  0.0D+00,  0.0D+00, -3.4D-02, r^2= 1.8D+00
   Bfn.  Coefficient  Atom+Function         Bfn.  Coefficient  Atom+Function  
  ----- ------------  ---------------      ----- ------------  ---------------
     1      0.938897  1 H  s                  3      0.906743  2 H  s          
     2     -0.710684  1 H  s                  4     -0.669297  2 H  s          


 Task  times  cpu:      191.5s     wall:      215.7s
 Summary of allocated global arrays
-----------------------------------
  No active global arrays



                         GA Statistics for process    0
                         ------------------------------

       create   destroy   get      put      acc     scatter   gather  read&inc
calls:   61       61     4.75e+07 2.10e+05 1.62e+05    0        0       11     
number of processes/call 1.00e+00 1.00e+00 1.00e+00 0.00e+00 0.00e+00
bytes total:             6.11e+09 3.82e+07 2.69e+07 0.00e+00 0.00e+00 8.80e+01
bytes remote:            0.00e+00 0.00e+00 0.00e+00 0.00e+00 0.00e+00 0.00e+00
Max memory consumed for GA by this process: 12160 bytes
MA_summarize_allocated_blocks: starting scan ...
MA_summarize_allocated_blocks: scan completed: 0 heap blocks, 0 stack blocks
MA usage statistics:

	allocation statistics:
					      heap	     stack
					      ----	     -----
	current number of blocks	         0	         0
	maximum number of blocks	        19	        17
	current total bytes		         0	         0
	maximum total bytes		   3204344	  22508664
	maximum total K-bytes		      3205	     22509
	maximum total M-bytes		         4	        23


                                NWChem Input Module
                                -------------------





                                     CITATION
                                     --------
                Please cite the following reference when publishing
                           results obtained with NWChem:

                 M. Valiev, E.J. Bylaska, N. Govind, K. Kowalski,
              T.P. Straatsma, H.J.J. van Dam, D. Wang, J. Nieplocha,
                        E. Apra, T.L. Windus, W.A. de Jong
                 "NWChem: a comprehensive and scalable open-source
                  solution for large scale molecular simulations"
                      Comput. Phys. Commun. 181, 1477 (2010)
                           doi:10.1016/j.cpc.2010.04.018

                                      AUTHORS
                                      -------
          E. Apra, E. J. Bylaska, W. A. de Jong, N. Govind, K. Kowalski,
       T. P. Straatsma, M. Valiev, H. J. J. van Dam, D. Wang, T. L. Windus,
        J. Hammond, J. Autschbach, K. Bhaskaran-Nair, J. Brabec, K. Lopata,
    S. A. Fischer, S. Krishnamoorthy, M. Jacquelin, W. Ma, M. Klemm, O. Villa,
      Y. Chen, V. Anisimov, F. Aquino, S. Hirata, M. T. Hackler, V. Konjkov,
      T. Risthaus, M. Malagoli, A. Marenich, A. Otero-de-la-Roza, J. Mullin,
        P. Nichols, R. Peverati, J. Pittner, Y. Zhao, P.-D. Fan, A. Fonari,
       M. Williamson, R. J. Harrison, J. R. Rehr, M. Dupuis, D. Silverstein,
    D. M. A. Smith, J. Nieplocha, V. Tipparaju, M. Krishnan, B. E. Van Kuiken,
        A. Vazquez-Mayagoitia, L. Jensen, M. Swart, Q. Wu, T. Van Voorhis,
     A. A. Auer, M. Nooijen, L. D. Crosby, E. Brown, G. Cisneros, G. I. Fann,
   H. Fruchtl, J. Garza, K. Hirao, R. A. Kendall, J. A. Nichols, K. Tsemekhman,
    K. Wolinski, J. Anchell, D. E. Bernholdt, P. Borowski, T. Clark, D. Clerc,
   H. Dachsel, M. J. O. Deegan, K. Dyall, D. Elwood, E. Glendening, M. Gutowski,
   A. C. Hess, J. Jaffe, B. G. Johnson, J. Ju, R. Kobayashi, R. Kutteh, Z. Lin,
   R. Littlefield, X. Long, B. Meng, T. Nakajima, S. Niu, L. Pollack, M. Rosing,
   K. Glaesemann, G. Sandrone, M. Stave, H. Taylor, G. Thomas, J. H. van Lenthe,
                               A. T. Wong, Z. Zhang.

 Total times  cpu:      191.5s     wall:      215.8s
        0.818085        0.181915        0.000000        0.000000        0.818085        0.181915        0.000000        0.000000