 argument  1 = /home/hvandam/nwchem-1-wfn1/QA/tests/wfn1-h2-6-31g-wfn1c14e/input-wf-6-31g-6.388692.nw



============================== echo of input deck ==============================
echo
start wfn1_dat
geometry units au noautoz
  H 0 0 -3.19434600000000000000
  H 0 0  3.19434600000000000000
  symmetry cs
end
basis
  H library 6-31g
end
set wfn1:input_vectors "atomic"
set wfn1:solver "monte-carlo"
set wfn1:print_error F
set wfn1:t_initial 0.1
#set wfn1:corr_expr "wfn1_mx"
set wfn1:corr_expr "wfn1c14"
#
set wfn1:fcd00  0.198826
set wfn1:fcd01  0.294438
set wfn1:fcd11  0.247007
set wfn1:fcd05  0.020225
set wfn1:fcd51  -0.098842
set wfn1:fcd55  -0.201236
#
set wfn1:rcd00  0.884548
set wfn1:rcd01  1.211432
set wfn1:rcd11  0.255064
set wfn1:rcd05  0.988291
set wfn1:rcd51  0.535281
set wfn1:rcd55  0.701049
#
set wfn1:fco00  -0.005884
set wfn1:fco01  0.063203
set wfn1:fco11  0.357171
set wfn1:fco05  0.019518
set wfn1:fco51  0.871725
set wfn1:fco55  1.051801
#
set wfn1:rco00  1.033050
set wfn1:rco01  0.850461
set wfn1:rco11  0.110139
set wfn1:rco05  0.985630
set wfn1:rco51  0.139729
set wfn1:rco55  0.918333
#
set wfn1:t_bath 0.0
set wfn1:maxit  20000
task wfn1 energy
================================================================================


                                         
                                         


              Northwest Computational Chemistry Package (NWChem) 6.8
              ------------------------------------------------------


                    Environmental Molecular Sciences Laboratory
                       Pacific Northwest National Laboratory
                                Richland, WA 99352

                              Copyright (c) 1994-2015
                       Pacific Northwest National Laboratory
                            Battelle Memorial Institute

             NWChem is an open-source computational chemistry package
                        distributed under the terms of the
                      Educational Community License (ECL) 2.0
             A copy of the license is included with this distribution
                              in the LICENSE.TXT file

                                  ACKNOWLEDGMENT
                                  --------------

            This software and its documentation were developed at the
            EMSL at Pacific Northwest National Laboratory, a multiprogram
            national laboratory, operated for the U.S. Department of Energy
            by Battelle under Contract Number DE-AC05-76RL01830. Support
            for this work was provided by the Department of Energy Office
            of Biological and Environmental Research, Office of Basic
            Energy Sciences, and the Office of Advanced Scientific Computing.


           Job information
           ---------------

    hostname        = node023
    program         = /home/hvandam/nwchem-1-wfn1/bin/LINUX64/nwchem
    date            = Thu Jun 17 23:51:00 2021

    compiled        = Sun_Jun_13_23:38:55_2021
    source          = /home/hvandam/nwchem-1-wfn1
    nwchem branch   = Development
    nwchem revision = nwchem_on_git-124-gad72d19fff205e319ffbbf2bca37a04ded6ad57b
    ga revision     = nwchem_on_git-124-gad72d19
    use scalapack   = F
    input           = /home/hvandam/nwchem-1-wfn1/QA/tests/wfn1-h2-6-31g-wfn1c14e/input-wf-6-31g-6.388692.nw
    prefix          = wfn1_dat.
    data base       = ./wfn1_dat.db
    status          = startup
    nproc           =        1
    time left       =     -1s



           Memory information
           ------------------

    heap     =   13107194 doubles =    100.0 Mbytes
    stack    =   13107199 doubles =    100.0 Mbytes
    global   =   26214400 doubles =    200.0 Mbytes (distinct from heap & stack)
    total    =   52428793 doubles =    400.0 Mbytes
    verify   = yes
    hardfail = no 


           Directory information
           ---------------------

  0 permanent = .
  0 scratch   = .




                                NWChem Input Module
                                -------------------


 Turning off AUTOSYM since
 SYMMETRY directive was detected!



                             Geometry "geometry" -> ""
                             -------------------------

 Output coordinates in a.u. (scale by  1.000000000 to convert to a.u.)

  No.       Tag          Charge          X              Y              Z
 ---- ---------------- ---------- -------------- -------------- --------------
    1 H                    1.0000     0.00000000     0.00000000    -3.19434600
    2 H                    1.0000     0.00000000     0.00000000     3.19434600

      Atomic Mass 
      ----------- 

      H                  1.007825


 Effective nuclear repulsion energy (a.u.)       0.1565265629

            Nuclear Dipole moment (a.u.) 
            ----------------------------
        X                 Y               Z
 ---------------- ---------------- ----------------
     0.0000000000     0.0000000000     0.0000000000

      Symmetry information
      --------------------

 Group name             Cs        
 Group number              2
 Group order               2
 No. of unique centers     1

      Symmetry unique atoms

     1


            XYZ format geometry
            -------------------
     2
 geometry
 H                     0.00000000     0.00000000    -1.69037523
 H                     0.00000000     0.00000000     1.69037523

                      Basis "ao basis" -> "" (cartesian)
                      -----
  H (Hydrogen)
  ------------
            Exponent  Coefficients 
       -------------- ---------------------------------------------------------
  1 S  1.87311370E+01  0.033495
  1 S  2.82539370E+00  0.234727
  1 S  6.40121700E-01  0.813757

  2 S  1.61277800E-01  1.000000



 Summary of "ao basis" -> "" (cartesian)
 ------------------------------------------------------------------------------
       Tag                 Description            Shells   Functions and Types
 ---------------- ------------------------------  ------  ---------------------
 H                           6-31g                   2        2   2s



                                NWChem WFN1 Module
                                ------------------



          No. of electrons :     2
           Alpha electrons :     1
            Beta electrons :     1
          Charge           :     0
          Spin multiplicity:     1

 HvD: wfn1_inpdft
 HvD: nquad_task =                     1
 HvD: iangquad   =                     0
 HvD: gridtype   = user      
 HvD: leb        =  T
 HvD: radgrid    = murakn    
 HvD: trunc_neigh=  T
 HvD: lssw       =  T
 HvD: whichssw   = erf1    
 HvD: mxnrad     =                     0
 HvD: mxnang     =                     0
 HVD: wfn1: movecs_in  = atomic                                                                                                                                                                                                                                                          
 HVD: wfn1: movecs_out = ./wfn1_dat.movecs                                                                                                                                                                                                                                               

      Superposition of Atomic Density Guess
      -------------------------------------

 Sum of atomic energies:          -0.99646508

      Non-variational initial energy
      ------------------------------

 Total energy =      -0.682194
 1-e energy   =      -1.309519
 2-e energy   =       0.470798
 HOMO         =      -0.201398
 LUMO         =      -0.180766

 iteration              energy           error
 ---------              ------           -----
         0         -0.98337368        0.020000
         1         -0.98516988        0.020000
         2         -0.98671761        0.020000
         3         -0.98762599        0.020000
         4         -0.98828908        0.020000
         5         -0.98987733        0.020000
         6         -0.99016852        0.020000
         7         -0.99171487        0.020000
         8         -0.99260186        0.020000
         9         -0.99261228        0.020000
        10         -0.99277193        0.020000
        11         -0.99285903        0.020000
        12         -0.99340735        0.020000
        13         -0.99386564        0.020000
        14         -0.99387476        0.020000
        15         -0.99409881        0.020000
        16         -0.99443167        0.020000
        17         -0.99463435        0.020000
        18         -0.99468899        0.020000
        19         -0.99474951        0.020000
        20         -0.99490048        0.020000
        21         -0.99508212        0.020000
        22         -0.99535757        0.020000
        23         -0.99540355        0.020000
        24         -0.99548084        0.020000
        25         -0.99551415        0.020000
        26         -0.99560168        0.020000
        27         -0.99560534        0.019681
        28         -0.99564615        0.018876
        29         -0.99566317        0.014187
        30         -0.99566419        0.013051
        31         -0.99566598        0.013051
        32         -0.99567127        0.007785
        33         -0.99567829        0.007395
        34         -0.99567894        0.007208
        35         -0.99568081        0.007208
        36         -0.99568357        0.005113
        37         -0.99568461        0.005000
        38         -0.99568559        0.004599
        39         -0.99568696        0.003880
        40         -0.99568697        0.003369
        41         -0.99568730        0.002842
        42         -0.99568785        0.002615
        43         -0.99568807        0.002476
        44         -0.99568815        0.002089
        45         -0.99568823        0.001525
        46         -0.99568835        0.001250
        47         -0.99568837        0.001150
        48         -0.99568840        0.001150
        49         -0.99568841        0.000889
        50         -0.99568845        0.000845
        51         -0.99568848        0.000777
        52         -0.99568850        0.000637
        53         -0.99568851        0.000621
        54         -0.99568851        0.000621
        55         -0.99568852        0.000571
        56         -0.99568852        0.000559
        57         -0.99568853        0.000559
        58         -0.99568854        0.000514
        59         -0.99568854        0.000448
        60         -0.99568854        0.000448
        61         -0.99568854        0.000436
        62         -0.99568855        0.000339
        63         -0.99568855        0.000270
        64         -0.99568856        0.000234
        65         -0.99568856        0.000222
        66         -0.99568856        0.000176
        67         -0.99568856        0.000145
        68         -0.99568856        0.000126
        69         -0.99568856        0.000097
        70         -0.99568856        0.000097
        71         -0.99568856        0.000082
        72         -0.99568856        0.000082
        73         -0.99568856        0.000071
        74         -0.99568856        0.000052
        75         -0.99568856        0.000042
        76         -0.99568856        0.000041
        77         -0.99568856        0.000037
        78         -0.99568856        0.000035
        79         -0.99568856        0.000034
        80         -0.99568856        0.000026
        81         -0.99568856        0.000025
        82         -0.99568856        0.000025
        83         -0.99568856        0.000025
        84         -0.99568856        0.000025
        85         -0.99568856        0.000024
        86         -0.99568856        0.000022
        87         -0.99568856        0.000022
        88         -0.99568856        0.000017
        89         -0.99568856        0.000017
        90         -0.99568856        0.000015
        91         -0.99568856        0.000015
        92         -0.99568856        0.000015
        93         -0.99568856        0.000014
        94         -0.99568856        0.000014
        95         -0.99568856        0.000012
        96         -0.99568856        0.000011
        97         -0.99568856        0.000011
        98         -0.99568856        0.000010
        99         -0.99568856        0.000010
       100         -0.99568856        0.000009
       101         -0.99568856        0.000008
       102         -0.99568856        0.000006
       103         -0.99568856        0.000006
       104         -0.99568856        0.000003
       105         -0.99568856        0.000002
       106         -0.99568856        0.000002
       107         -0.99568856        0.000002
       108         -0.99568856        0.000002
       109         -0.99568856        0.000002
       110         -0.99568856        0.000002
       111         -0.99568856        0.000001
       112         -0.99568856        0.000001
       113         -0.99568856        0.000001
       114         -0.99568856        0.000001

 Reached Convergence

 WFN1                     :
 --------------------------
 Total WFN1 energy  =          -0.9956885595
 1-Electron energy  =          -1.3099088390
 2-Electron energy  =           0.3927805072
 Correlation energy =          -0.2350867906
 DFT XC energy      =           0.0000000000
 Entropy energy     =           0.0000000000
 Nuclear energy     =           0.1565265629

 conventional Hartree-Fock:
 --------------------------
 Total SCF energy  =          -0.9175981506
 2-Electron energy =           0.4708709161

                WFN1 Final Natural orbital energies and occupations
                ---------------------------------------------------

              Alpha       Beta            Alpha       Beta  
            --------    --------        --------    --------
       1      0.0000      0.0000          0.5218      0.5218
       2      0.0000      0.0000          0.4782      0.4782
       3      0.0000      0.0000          0.0000      0.0000
       4      0.0000      0.0000          0.0000      0.0000

             WFN1 Final Correlation function energies and occupations
             --------------------------------------------------------

              Alpha       Beta            Alpha       Beta  
            --------    --------        --------    --------
       1      0.0000      0.0000          1.0000      1.0000
       2      0.0000      0.0000          0.0000      0.0000
       3      0.0000      0.0000          0.0000      0.0000
       4      0.0000      0.0000          0.0000      0.0000

                WFN1 Final alpha-alpha 2-matrix occupation numbers
                --------------------------------------------------


 global array: g_momo1[1:4,1:4],  handle: -990 

            1           2           3           4  
       ----------- ----------- ----------- -----------
   1       0.00000     0.00000     0.00000     0.00000
   2       0.00000     0.00000     0.00000     0.00000
   3       0.00000    -0.00000     0.00000     0.00000
   4       0.00000     0.00000     0.00000     0.00000

                 WFN1 Final beta-beta 2-matrix occupation numbers
                 ------------------------------------------------


 global array: g_momo2[1:4,1:4],  handle: -989 

            1           2           3           4  
       ----------- ----------- ----------- -----------
   1       0.00000     0.00000     0.00000     0.00000
   2       0.00000     0.00000     0.00000     0.00000
   3       0.00000    -0.00000     0.00000     0.00000
   4       0.00000     0.00000     0.00000     0.00000

                  WFN1 Final alpha Correlation Function Analysis
                  ----------------------------------------------


 global array: Ca[1:4,1:4],  handle: -976 

                     1                       2                       3                       4  
       ----------------------- ----------------------- ----------------------- -----------------------
   1       0.25666,    0.67526     0.24222,    0.64698    -0.00571,    0.02746    -0.00237,   -0.01032
   2      -0.47851,    0.49918     0.50204,   -0.51848     0.02834,   -0.00718    -0.00878,    0.00693
   3      -0.00017,   -0.00006     0.01870,   -0.03745    -0.67973,    0.49433     0.43177,   -0.32469
   4      -0.00009,    0.00008    -0.01024,    0.00467     0.44398,    0.30795     0.69919,    0.46803

                   WFN1 Final beta Correlation Function Analysis
                   ---------------------------------------------


 global array: Cb[1:4,1:4],  handle: -975 

                     1                       2                       3                       4  
       ----------------------- ----------------------- ----------------------- -----------------------
   1       0.25666,    0.67526     0.24222,    0.64698    -0.00571,    0.02746    -0.00237,   -0.01032
   2      -0.47851,    0.49918     0.50204,   -0.51848     0.02834,   -0.00718    -0.00878,    0.00693
   3      -0.00017,   -0.00006     0.01870,   -0.03745    -0.67973,    0.49433     0.43177,   -0.32469
   4      -0.00009,    0.00008    -0.01024,    0.00467     0.44398,    0.30795     0.69919,    0.46803

                     WFN1 Final Alpha Natural Orbital Analysis
                     -----------------------------------------

 Vector    1  Occ=5.218482D-01  E= 0.000000D+00
              MO Center=  0.0D+00,  0.0D+00,  4.6D-09, r^2= 3.6D+00
   Bfn.  Coefficient  Atom+Function         Bfn.  Coefficient  Atom+Function  
  ----- ------------  ---------------      ----- ------------  ---------------
     2     -0.468622  1 H  s                  4     -0.468622  2 H  s          
     1     -0.296904  1 H  s                  3     -0.296904  2 H  s          

 Vector    2  Occ=4.781518D-01  E= 0.000000D+00
              MO Center=  0.0D+00,  0.0D+00, -3.5D-08, r^2= 3.7D+00
   Bfn.  Coefficient  Atom+Function         Bfn.  Coefficient  Atom+Function  
  ----- ------------  ---------------      ----- ------------  ---------------
     2      0.471014  1 H  s                  4     -0.471015  2 H  s          
     1      0.309183  1 H  s                  3     -0.309183  2 H  s          

 Vector    3  Occ=3.292871D-08  E= 0.000000D+00
              MO Center=  0.0D+00,  0.0D+00,  1.5D-01, r^2= 3.9D+00
   Bfn.  Coefficient  Atom+Function         Bfn.  Coefficient  Atom+Function  
  ----- ------------  ---------------      ----- ------------  ---------------
     3     -0.919571  2 H  s                  1     -0.841354  1 H  s          
     4      0.819798  2 H  s                  2      0.746147  1 H  s          

 Vector    4  Occ=1.503922D-08  E= 0.000000D+00
              MO Center=  0.0D+00,  0.0D+00, -1.5D-01, r^2= 4.2D+00
   Bfn.  Coefficient  Atom+Function         Bfn.  Coefficient  Atom+Function  
  ----- ------------  ---------------      ----- ------------  ---------------
     1     -0.935592  1 H  s                  2      0.878975  1 H  s          
     3      0.858836  2 H  s                  4     -0.810718  2 H  s          


                     WFN1 Final Beta Natural Orbital Analysis
                     ----------------------------------------

 Vector    1  Occ=5.218482D-01  E= 0.000000D+00
              MO Center=  0.0D+00,  0.0D+00,  4.6D-09, r^2= 3.6D+00
   Bfn.  Coefficient  Atom+Function         Bfn.  Coefficient  Atom+Function  
  ----- ------------  ---------------      ----- ------------  ---------------
     2     -0.468622  1 H  s                  4     -0.468622  2 H  s          
     1     -0.296904  1 H  s                  3     -0.296904  2 H  s          

 Vector    2  Occ=4.781518D-01  E= 0.000000D+00
              MO Center=  0.0D+00,  0.0D+00, -3.5D-08, r^2= 3.7D+00
   Bfn.  Coefficient  Atom+Function         Bfn.  Coefficient  Atom+Function  
  ----- ------------  ---------------      ----- ------------  ---------------
     2      0.471014  1 H  s                  4     -0.471015  2 H  s          
     1      0.309183  1 H  s                  3     -0.309183  2 H  s          

 Vector    3  Occ=3.292871D-08  E= 0.000000D+00
              MO Center=  0.0D+00,  0.0D+00,  1.5D-01, r^2= 3.9D+00
   Bfn.  Coefficient  Atom+Function         Bfn.  Coefficient  Atom+Function  
  ----- ------------  ---------------      ----- ------------  ---------------
     3     -0.919571  2 H  s                  1     -0.841354  1 H  s          
     4      0.819798  2 H  s                  2      0.746147  1 H  s          

 Vector    4  Occ=1.503922D-08  E= 0.000000D+00
              MO Center=  0.0D+00,  0.0D+00, -1.5D-01, r^2= 4.2D+00
   Bfn.  Coefficient  Atom+Function         Bfn.  Coefficient  Atom+Function  
  ----- ------------  ---------------      ----- ------------  ---------------
     1     -0.935592  1 H  s                  2      0.878975  1 H  s          
     3      0.858836  2 H  s                  4     -0.810718  2 H  s          


 Task  times  cpu:      190.6s     wall:      215.0s
 Summary of allocated global arrays
-----------------------------------
  No active global arrays



                         GA Statistics for process    0
                         ------------------------------

       create   destroy   get      put      acc     scatter   gather  read&inc
calls:   61       61     4.78e+07 2.11e+05 1.63e+05    0        0       11     
number of processes/call 1.00e+00 1.00e+00 1.00e+00 0.00e+00 0.00e+00
bytes total:             6.15e+09 3.84e+07 2.70e+07 0.00e+00 0.00e+00 8.80e+01
bytes remote:            0.00e+00 0.00e+00 0.00e+00 0.00e+00 0.00e+00 0.00e+00
Max memory consumed for GA by this process: 12160 bytes
MA_summarize_allocated_blocks: starting scan ...
MA_summarize_allocated_blocks: scan completed: 0 heap blocks, 0 stack blocks
MA usage statistics:

	allocation statistics:
					      heap	     stack
					      ----	     -----
	current number of blocks	         0	         0
	maximum number of blocks	        19	        17
	current total bytes		         0	         0
	maximum total bytes		   3204376	  22508632
	maximum total K-bytes		      3205	     22509
	maximum total M-bytes		         4	        23


                                NWChem Input Module
                                -------------------





                                     CITATION
                                     --------
                Please cite the following reference when publishing
                           results obtained with NWChem:

                 M. Valiev, E.J. Bylaska, N. Govind, K. Kowalski,
              T.P. Straatsma, H.J.J. van Dam, D. Wang, J. Nieplocha,
                        E. Apra, T.L. Windus, W.A. de Jong
                 "NWChem: a comprehensive and scalable open-source
                  solution for large scale molecular simulations"
                      Comput. Phys. Commun. 181, 1477 (2010)
                           doi:10.1016/j.cpc.2010.04.018

                                      AUTHORS
                                      -------
          E. Apra, E. J. Bylaska, W. A. de Jong, N. Govind, K. Kowalski,
       T. P. Straatsma, M. Valiev, H. J. J. van Dam, D. Wang, T. L. Windus,
        J. Hammond, J. Autschbach, K. Bhaskaran-Nair, J. Brabec, K. Lopata,
    S. A. Fischer, S. Krishnamoorthy, M. Jacquelin, W. Ma, M. Klemm, O. Villa,
      Y. Chen, V. Anisimov, F. Aquino, S. Hirata, M. T. Hackler, V. Konjkov,
      T. Risthaus, M. Malagoli, A. Marenich, A. Otero-de-la-Roza, J. Mullin,
        P. Nichols, R. Peverati, J. Pittner, Y. Zhao, P.-D. Fan, A. Fonari,
       M. Williamson, R. J. Harrison, J. R. Rehr, M. Dupuis, D. Silverstein,
    D. M. A. Smith, J. Nieplocha, V. Tipparaju, M. Krishnan, B. E. Van Kuiken,
        A. Vazquez-Mayagoitia, L. Jensen, M. Swart, Q. Wu, T. Van Voorhis,
     A. A. Auer, M. Nooijen, L. D. Crosby, E. Brown, G. Cisneros, G. I. Fann,
   H. Fruchtl, J. Garza, K. Hirao, R. A. Kendall, J. A. Nichols, K. Tsemekhman,
    K. Wolinski, J. Anchell, D. E. Bernholdt, P. Borowski, T. Clark, D. Clerc,
   H. Dachsel, M. J. O. Deegan, K. Dyall, D. Elwood, E. Glendening, M. Gutowski,
   A. C. Hess, J. Jaffe, B. G. Johnson, J. Ju, R. Kobayashi, R. Kutteh, Z. Lin,
   R. Littlefield, X. Long, B. Meng, T. Nakajima, S. Niu, L. Pollack, M. Rosing,
   K. Glaesemann, G. Sandrone, M. Stave, H. Taylor, G. Thomas, J. H. van Lenthe,
                               A. T. Wong, Z. Zhang.

 Total times  cpu:      190.6s     wall:      215.0s
        0.521848        0.478152        0.000000        0.000000        0.521848        0.478152        0.000000        0.000000