 argument  1 = /home/hvandam/nwchem-1-wfn1/QA/tests/wfn1-h2-6-31g-wfn1c14e/input-wf-6-31g-1.388692.nw



============================== echo of input deck ==============================
echo
start wfn1_dat
geometry units au noautoz
  H 0 0 -.69434600000000000000
  H 0 0  .69434600000000000000
  symmetry cs
end
basis
  H library 6-31g
end
set wfn1:input_vectors "atomic"
set wfn1:solver "monte-carlo"
set wfn1:print_error F
set wfn1:t_initial 0.1
#set wfn1:corr_expr "wfn1_mx"
set wfn1:corr_expr "wfn1c14"
#
set wfn1:fcd00  0.198826
set wfn1:fcd01  0.294438
set wfn1:fcd11  0.247007
set wfn1:fcd05  0.020225
set wfn1:fcd51  -0.098842
set wfn1:fcd55  -0.201236
#
set wfn1:rcd00  0.884548
set wfn1:rcd01  1.211432
set wfn1:rcd11  0.255064
set wfn1:rcd05  0.988291
set wfn1:rcd51  0.535281
set wfn1:rcd55  0.701049
#
set wfn1:fco00  -0.005884
set wfn1:fco01  0.063203
set wfn1:fco11  0.357171
set wfn1:fco05  0.019518
set wfn1:fco51  0.871725
set wfn1:fco55  1.051801
#
set wfn1:rco00  1.033050
set wfn1:rco01  0.850461
set wfn1:rco11  0.110139
set wfn1:rco05  0.985630
set wfn1:rco51  0.139729
set wfn1:rco55  0.918333
#
set wfn1:t_bath 0.0
set wfn1:maxit  20000
task wfn1 energy
================================================================================


                                         
                                         


              Northwest Computational Chemistry Package (NWChem) 6.8
              ------------------------------------------------------


                    Environmental Molecular Sciences Laboratory
                       Pacific Northwest National Laboratory
                                Richland, WA 99352

                              Copyright (c) 1994-2015
                       Pacific Northwest National Laboratory
                            Battelle Memorial Institute

             NWChem is an open-source computational chemistry package
                        distributed under the terms of the
                      Educational Community License (ECL) 2.0
             A copy of the license is included with this distribution
                              in the LICENSE.TXT file

                                  ACKNOWLEDGMENT
                                  --------------

            This software and its documentation were developed at the
            EMSL at Pacific Northwest National Laboratory, a multiprogram
            national laboratory, operated for the U.S. Department of Energy
            by Battelle under Contract Number DE-AC05-76RL01830. Support
            for this work was provided by the Department of Energy Office
            of Biological and Environmental Research, Office of Basic
            Energy Sciences, and the Office of Advanced Scientific Computing.


           Job information
           ---------------

    hostname        = node023
    program         = /home/hvandam/nwchem-1-wfn1/bin/LINUX64/nwchem
    date            = Thu Jun 17 23:47:25 2021

    compiled        = Sun_Jun_13_23:38:55_2021
    source          = /home/hvandam/nwchem-1-wfn1
    nwchem branch   = Development
    nwchem revision = nwchem_on_git-124-gad72d19fff205e319ffbbf2bca37a04ded6ad57b
    ga revision     = nwchem_on_git-124-gad72d19
    use scalapack   = F
    input           = /home/hvandam/nwchem-1-wfn1/QA/tests/wfn1-h2-6-31g-wfn1c14e/input-wf-6-31g-1.388692.nw
    prefix          = wfn1_dat.
    data base       = ./wfn1_dat.db
    status          = startup
    nproc           =        1
    time left       =     -1s



           Memory information
           ------------------

    heap     =   13107200 doubles =    100.0 Mbytes
    stack    =   13107197 doubles =    100.0 Mbytes
    global   =   26214400 doubles =    200.0 Mbytes (distinct from heap & stack)
    total    =   52428797 doubles =    400.0 Mbytes
    verify   = yes
    hardfail = no 


           Directory information
           ---------------------

  0 permanent = .
  0 scratch   = .




                                NWChem Input Module
                                -------------------


 Turning off AUTOSYM since
 SYMMETRY directive was detected!



                             Geometry "geometry" -> ""
                             -------------------------

 Output coordinates in a.u. (scale by  1.000000000 to convert to a.u.)

  No.       Tag          Charge          X              Y              Z
 ---- ---------------- ---------- -------------- -------------- --------------
    1 H                    1.0000     0.00000000     0.00000000    -0.69434600
    2 H                    1.0000     0.00000000     0.00000000     0.69434600

      Atomic Mass 
      ----------- 

      H                  1.007825


 Effective nuclear repulsion energy (a.u.)       0.7201020817

            Nuclear Dipole moment (a.u.) 
            ----------------------------
        X                 Y               Z
 ---------------- ---------------- ----------------
     0.0000000000     0.0000000000     0.0000000000

      Symmetry information
      --------------------

 Group name             Cs        
 Group number              2
 Group order               2
 No. of unique centers     1

      Symmetry unique atoms

     1


            XYZ format geometry
            -------------------
     2
 geometry
 H                     0.00000000     0.00000000    -0.36743211
 H                     0.00000000     0.00000000     0.36743211

                      Basis "ao basis" -> "" (cartesian)
                      -----
  H (Hydrogen)
  ------------
            Exponent  Coefficients 
       -------------- ---------------------------------------------------------
  1 S  1.87311370E+01  0.033495
  1 S  2.82539370E+00  0.234727
  1 S  6.40121700E-01  0.813757

  2 S  1.61277800E-01  1.000000



 Summary of "ao basis" -> "" (cartesian)
 ------------------------------------------------------------------------------
       Tag                 Description            Shells   Functions and Types
 ---------------- ------------------------------  ------  ---------------------
 H                           6-31g                   2        2   2s



                                NWChem WFN1 Module
                                ------------------



          No. of electrons :     2
           Alpha electrons :     1
            Beta electrons :     1
          Charge           :     0
          Spin multiplicity:     1

 HvD: wfn1_inpdft
 HvD: nquad_task =                     1
 HvD: iangquad   =                     0
 HvD: gridtype   = user      
 HvD: leb        =  T
 HvD: radgrid    = murakn    
 HvD: trunc_neigh=  T
 HvD: lssw       =  T
 HvD: whichssw   = erf1    
 HvD: mxnrad     =                     0
 HvD: mxnang     =                     0
 HVD: wfn1: movecs_in  = atomic                                                                                                                                                                                                                                                          
 HVD: wfn1: movecs_out = ./wfn1_dat.movecs                                                                                                                                                                                                                                               

      Superposition of Atomic Density Guess
      -------------------------------------

 Sum of atomic energies:          -0.99646508

      Non-variational initial energy
      ------------------------------

 Total energy =      -0.847150
 1-e energy   =      -2.225539
 2-e energy   =       0.658288
 HOMO         =      -0.583956
 LUMO         =       0.176885

 iteration              energy           error
 ---------              ------           -----
         0         -1.13181615        0.020000
         1         -1.13343152        0.020000
         2         -1.13531012        0.020000
         3         -1.13559523        0.020000
         4         -1.13817228        0.020000
         5         -1.14049795        0.020000
         6         -1.14125390        0.020000
         7         -1.14220690        0.020000
         8         -1.14350220        0.020000
         9         -1.14379119        0.020000
        10         -1.14399063        0.020000
        11         -1.14511418        0.020000
        12         -1.14534603        0.020000
        13         -1.14574959        0.020000
        14         -1.14589012        0.020000
        15         -1.14596555        0.020000
        16         -1.14688794        0.020000
        17         -1.14886098        0.020000
        18         -1.14983343        0.020000
        19         -1.14994614        0.020000
        20         -1.15120391        0.020000
        21         -1.15174141        0.020000
        22         -1.15181096        0.020000
        23         -1.15194473        0.020000
        24         -1.15208755        0.020000
        25         -1.15211148        0.020000
        26         -1.15216286        0.020000
        27         -1.15219337        0.020000
        28         -1.15230458        0.020000
        29         -1.15234742        0.020000
        30         -1.15245570        0.020000
        31         -1.15249806        0.020000
        32         -1.15257666        0.020000
        33         -1.15264889        0.018105
        34         -1.15267540        0.017646
        35         -1.15279907        0.017646
        36         -1.15283397        0.016709
        37         -1.15283768        0.016709
        38         -1.15284275        0.016709
        39         -1.15285808        0.014141
        40         -1.15288659        0.014141
        41         -1.15289911        0.014141
        42         -1.15291405        0.014141
        43         -1.15291550        0.014141
        44         -1.15292690        0.013093
        45         -1.15296157        0.013093
        46         -1.15300104        0.013093
        47         -1.15306370        0.012926
        48         -1.15307389        0.012679
        49         -1.15307452        0.012358
        50         -1.15307589        0.012358
        51         -1.15308155        0.012358
        52         -1.15309118        0.012358
        53         -1.15310453        0.012044
        54         -1.15310755        0.012044
        55         -1.15313236        0.011853
        56         -1.15313599        0.011853
        57         -1.15315121        0.011853
        58         -1.15315267        0.011589
        59         -1.15315308        0.010730
        60         -1.15315314        0.010730
        61         -1.15315678        0.010730
        62         -1.15318174        0.010458
        63         -1.15318559        0.010259
        64         -1.15318624        0.009714
        65         -1.15319225        0.009198
        66         -1.15319912        0.008221
        67         -1.15319989        0.006935
        68         -1.15320160        0.006935
        69         -1.15320168        0.006567
        70         -1.15320362        0.005888
        71         -1.15320771        0.005263
        72         -1.15320860        0.004703
        73         -1.15320960        0.003434
        74         -1.15321138        0.002982
        75         -1.15321138        0.002906
        76         -1.15321150        0.002452
        77         -1.15321213        0.002390
        78         -1.15321241        0.002390
        79         -1.15321347        0.002390
        80         -1.15321362        0.002263
        81         -1.15321375        0.001481
        82         -1.15321378        0.001250
        83         -1.15321381        0.001183
        84         -1.15321383        0.001153
        85         -1.15321402        0.001153
        86         -1.15321433        0.001153
        87         -1.15321453        0.001153
        88         -1.15321471        0.001153
        89         -1.15321479        0.001153
        90         -1.15321487        0.001124
        91         -1.15321494        0.001113
        92         -1.15321509        0.001054
        93         -1.15321509        0.000792
        94         -1.15321511        0.000613
        95         -1.15321512        0.000532
        96         -1.15321512        0.000424
        97         -1.15321518        0.000424
        98         -1.15321518        0.000379
        99         -1.15321518        0.000379
       100         -1.15321523        0.000379
       101         -1.15321525        0.000370
       102         -1.15321526        0.000353
       103         -1.15321526        0.000344
       104         -1.15321527        0.000326
       105         -1.15321527        0.000300
       106         -1.15321527        0.000284
       107         -1.15321527        0.000220
       108         -1.15321528        0.000214
       109         -1.15321528        0.000203
       110         -1.15321528        0.000203
       111         -1.15321528        0.000157
       112         -1.15321528        0.000137
       113         -1.15321528        0.000122
       114         -1.15321529        0.000122
       115         -1.15321529        0.000122
       116         -1.15321529        0.000122
       117         -1.15321529        0.000122
       118         -1.15321529        0.000122
       119         -1.15321529        0.000082
       120         -1.15321529        0.000070
       121         -1.15321529        0.000064
       122         -1.15321529        0.000064
       123         -1.15321529        0.000064
       124         -1.15321529        0.000061
       125         -1.15321529        0.000046
       126         -1.15321529        0.000039
       127         -1.15321529        0.000032
       128         -1.15321529        0.000030
       129         -1.15321529        0.000028
       130         -1.15321529        0.000028
       131         -1.15321529        0.000026
       132         -1.15321529        0.000025
       133         -1.15321529        0.000021
       134         -1.15321529        0.000021
       135         -1.15321529        0.000018
       136         -1.15321529        0.000018
       137         -1.15321529        0.000018
       138         -1.15321529        0.000017
       139         -1.15321529        0.000017
       140         -1.15321529        0.000017
       141         -1.15321529        0.000011
       142         -1.15321529        0.000009
       143         -1.15321529        0.000009
       144         -1.15321529        0.000009
       145         -1.15321529        0.000007
       146         -1.15321529        0.000006
       147         -1.15321529        0.000006
       148         -1.15321529        0.000006
       149         -1.15321529        0.000006
       150         -1.15321529        0.000006
       151         -1.15321529        0.000003
       152         -1.15321529        0.000003
       153         -1.15321529        0.000003
       154         -1.15321529        0.000002
       155         -1.15321529        0.000002
       156         -1.15321529        0.000002
       157         -1.15321529        0.000002
       158         -1.15321529        0.000002
       159         -1.15321529        0.000002
       160         -1.15321529        0.000002
       161         -1.15321529        0.000001
       162         -1.15321529        0.000001
       163         -1.15321529        0.000001
       164         -1.15321529        0.000001
       165         -1.15321529        0.000001
       166         -1.15321529        0.000001
       167         -1.15321529        0.000001
       168         -1.15321529        0.000001
       169         -1.15321529        0.000001
       170         -1.15321529        0.000001

 Reached Convergence

 WFN1                     :
 --------------------------
 Total WFN1 energy  =          -1.1532152883
 1-Electron energy  =          -2.4701039255
 2-Electron energy  =           0.6510459514
 Correlation energy =          -0.0542593959
 DFT XC energy      =           0.0000000000
 Entropy energy     =           0.0000000000
 Nuclear energy     =           0.7201020817

 conventional Hartree-Fock:
 --------------------------
 Total SCF energy  =          -1.1323676914
 2-Electron energy =           0.6718935483

                WFN1 Final Natural orbital energies and occupations
                ---------------------------------------------------

              Alpha       Beta            Alpha       Beta  
            --------    --------        --------    --------
       1      0.0000      0.0000          0.9718      0.9718
       2      0.0000      0.0000          0.0282      0.0282
       3      0.0000      0.0000          0.0000      0.0000
       4      0.0000      0.0000          0.0000      0.0000

             WFN1 Final Correlation function energies and occupations
             --------------------------------------------------------

              Alpha       Beta            Alpha       Beta  
            --------    --------        --------    --------
       1      0.0000      0.0000          1.0000      1.0000
       2      0.0000      0.0000          0.0000      0.0000
       3      0.0000      0.0000          0.0000      0.0000
       4      0.0000      0.0000          0.0000      0.0000

                WFN1 Final alpha-alpha 2-matrix occupation numbers
                --------------------------------------------------


 global array: g_momo1[1:4,1:4],  handle: -990 

            1           2           3           4  
       ----------- ----------- ----------- -----------
   1       0.00000     0.00000     0.00000    -0.00000
   2       0.00000     0.00000     0.00000    -0.00000
   3       0.00000     0.00000     0.00000    -0.00000
   4       0.00000     0.00000     0.00000     0.00000

                 WFN1 Final beta-beta 2-matrix occupation numbers
                 ------------------------------------------------


 global array: g_momo2[1:4,1:4],  handle: -989 

            1           2           3           4  
       ----------- ----------- ----------- -----------
   1       0.00000     0.00000     0.00000    -0.00000
   2       0.00000     0.00000     0.00000    -0.00000
   3       0.00000     0.00000     0.00000    -0.00000
   4       0.00000     0.00000     0.00000     0.00000

                  WFN1 Final alpha Correlation Function Analysis
                  ----------------------------------------------


 global array: Ca[1:4,1:4],  handle: -976 

                     1                       2                       3                       4  
       ----------------------- ----------------------- ----------------------- -----------------------
   1      -0.88649,    0.43121     0.05169,    0.15929     0.00452,    0.00567     0.00940,    0.00138
   2       0.08503,   -0.14477     0.77072,    0.61064     0.04054,    0.01305     0.05046,   -0.02384
   3      -0.00000,   -0.00001     0.00801,    0.04132    -0.38640,   -0.91436    -0.02275,    0.11119
   4      -0.00000,   -0.00000    -0.03039,   -0.04875     0.09087,   -0.06729     0.99182,   -0.01435

                   WFN1 Final beta Correlation Function Analysis
                   ---------------------------------------------


 global array: Cb[1:4,1:4],  handle: -975 

                     1                       2                       3                       4  
       ----------------------- ----------------------- ----------------------- -----------------------
   1      -0.88649,    0.43121     0.05169,    0.15929     0.00452,    0.00567     0.00940,    0.00138
   2       0.08503,   -0.14477     0.77072,    0.61064     0.04054,    0.01305     0.05046,   -0.02384
   3      -0.00000,   -0.00001     0.00801,    0.04132    -0.38640,   -0.91436    -0.02275,    0.11119
   4      -0.00000,   -0.00000    -0.03039,   -0.04875     0.09087,   -0.06729     0.99182,   -0.01435

                     WFN1 Final Alpha Natural Orbital Analysis
                     -----------------------------------------

 Vector    1  Occ=9.718116D-01  E= 0.000000D+00
              MO Center=  0.0D+00,  0.0D+00, -1.1D-07, r^2= 7.1D-01
   Bfn.  Coefficient  Atom+Function         Bfn.  Coefficient  Atom+Function  
  ----- ------------  ---------------      ----- ------------  ---------------
     1      0.337536  1 H  s                  3      0.337536  2 H  s          
     2      0.261704  1 H  s                  4      0.261704  2 H  s          

 Vector    2  Occ=2.818839D-02  E= 0.000000D+00
              MO Center=  0.0D+00,  0.0D+00,  5.5D-07, r^2= 1.7D+00
   Bfn.  Coefficient  Atom+Function         Bfn.  Coefficient  Atom+Function  
  ----- ------------  ---------------      ----- ------------  ---------------
     2     -1.491263  1 H  s                  4      1.491263  2 H  s          
     1     -0.298960  1 H  s                  3      0.298959  2 H  s          

 Vector    3  Occ=4.053050D-11  E= 0.000000D+00
              MO Center=  0.0D+00,  0.0D+00,  8.5D-02, r^2= 1.6D+00
   Bfn.  Coefficient  Atom+Function         Bfn.  Coefficient  Atom+Function  
  ----- ------------  ---------------      ----- ------------  ---------------
     3     -0.838273  2 H  s                  4      0.806155  2 H  s          
     1     -0.677129  1 H  s                  2      0.568778  1 H  s          

 Vector    4  Occ=5.197756D-13  E= 0.000000D+00
              MO Center=  0.0D+00,  0.0D+00, -8.5D-02, r^2= 1.4D+00
   Bfn.  Coefficient  Atom+Function         Bfn.  Coefficient  Atom+Function  
  ----- ------------  ---------------      ----- ------------  ---------------
     2     -1.656978  1 H  s                  4      1.555377  2 H  s          
     1      1.146336  1 H  s                  3     -1.034355  2 H  s          


                     WFN1 Final Beta Natural Orbital Analysis
                     ----------------------------------------

 Vector    1  Occ=9.718116D-01  E= 0.000000D+00
              MO Center=  0.0D+00,  0.0D+00, -1.1D-07, r^2= 7.1D-01
   Bfn.  Coefficient  Atom+Function         Bfn.  Coefficient  Atom+Function  
  ----- ------------  ---------------      ----- ------------  ---------------
     1      0.337536  1 H  s                  3      0.337536  2 H  s          
     2      0.261704  1 H  s                  4      0.261704  2 H  s          

 Vector    2  Occ=2.818839D-02  E= 0.000000D+00
              MO Center=  0.0D+00,  0.0D+00,  5.5D-07, r^2= 1.7D+00
   Bfn.  Coefficient  Atom+Function         Bfn.  Coefficient  Atom+Function  
  ----- ------------  ---------------      ----- ------------  ---------------
     2     -1.491263  1 H  s                  4      1.491263  2 H  s          
     1     -0.298960  1 H  s                  3      0.298959  2 H  s          

 Vector    3  Occ=4.053050D-11  E= 0.000000D+00
              MO Center=  0.0D+00,  0.0D+00,  8.5D-02, r^2= 1.6D+00
   Bfn.  Coefficient  Atom+Function         Bfn.  Coefficient  Atom+Function  
  ----- ------------  ---------------      ----- ------------  ---------------
     3     -0.838273  2 H  s                  4      0.806155  2 H  s          
     1     -0.677129  1 H  s                  2      0.568778  1 H  s          

 Vector    4  Occ=5.197756D-13  E= 0.000000D+00
              MO Center=  0.0D+00,  0.0D+00, -8.5D-02, r^2= 1.4D+00
   Bfn.  Coefficient  Atom+Function         Bfn.  Coefficient  Atom+Function  
  ----- ------------  ---------------      ----- ------------  ---------------
     2     -1.656978  1 H  s                  4      1.555377  2 H  s          
     1      1.146336  1 H  s                  3     -1.034355  2 H  s          


 Task  times  cpu:      203.4s     wall:      229.7s
 Summary of allocated global arrays
-----------------------------------
  No active global arrays



                         GA Statistics for process    0
                         ------------------------------

       create   destroy   get      put      acc     scatter   gather  read&inc
calls:   61       61     5.06e+07 2.24e+05 1.72e+05    0        0       11     
number of processes/call 1.00e+00 1.00e+00 1.00e+00 0.00e+00 0.00e+00
bytes total:             6.52e+09 4.07e+07 2.87e+07 0.00e+00 0.00e+00 8.80e+01
bytes remote:            0.00e+00 0.00e+00 0.00e+00 0.00e+00 0.00e+00 0.00e+00
Max memory consumed for GA by this process: 12160 bytes
MA_summarize_allocated_blocks: starting scan ...
MA_summarize_allocated_blocks: scan completed: 0 heap blocks, 0 stack blocks
MA usage statistics:

	allocation statistics:
					      heap	     stack
					      ----	     -----
	current number of blocks	         0	         0
	maximum number of blocks	        19	        17
	current total bytes		         0	         0
	maximum total bytes		   3204328	  22508616
	maximum total K-bytes		      3205	     22509
	maximum total M-bytes		         4	        23


                                NWChem Input Module
                                -------------------





                                     CITATION
                                     --------
                Please cite the following reference when publishing
                           results obtained with NWChem:

                 M. Valiev, E.J. Bylaska, N. Govind, K. Kowalski,
              T.P. Straatsma, H.J.J. van Dam, D. Wang, J. Nieplocha,
                        E. Apra, T.L. Windus, W.A. de Jong
                 "NWChem: a comprehensive and scalable open-source
                  solution for large scale molecular simulations"
                      Comput. Phys. Commun. 181, 1477 (2010)
                           doi:10.1016/j.cpc.2010.04.018

                                      AUTHORS
                                      -------
          E. Apra, E. J. Bylaska, W. A. de Jong, N. Govind, K. Kowalski,
       T. P. Straatsma, M. Valiev, H. J. J. van Dam, D. Wang, T. L. Windus,
        J. Hammond, J. Autschbach, K. Bhaskaran-Nair, J. Brabec, K. Lopata,
    S. A. Fischer, S. Krishnamoorthy, M. Jacquelin, W. Ma, M. Klemm, O. Villa,
      Y. Chen, V. Anisimov, F. Aquino, S. Hirata, M. T. Hackler, V. Konjkov,
      T. Risthaus, M. Malagoli, A. Marenich, A. Otero-de-la-Roza, J. Mullin,
        P. Nichols, R. Peverati, J. Pittner, Y. Zhao, P.-D. Fan, A. Fonari,
       M. Williamson, R. J. Harrison, J. R. Rehr, M. Dupuis, D. Silverstein,
    D. M. A. Smith, J. Nieplocha, V. Tipparaju, M. Krishnan, B. E. Van Kuiken,
        A. Vazquez-Mayagoitia, L. Jensen, M. Swart, Q. Wu, T. Van Voorhis,
     A. A. Auer, M. Nooijen, L. D. Crosby, E. Brown, G. Cisneros, G. I. Fann,
   H. Fruchtl, J. Garza, K. Hirao, R. A. Kendall, J. A. Nichols, K. Tsemekhman,
    K. Wolinski, J. Anchell, D. E. Bernholdt, P. Borowski, T. Clark, D. Clerc,
   H. Dachsel, M. J. O. Deegan, K. Dyall, D. Elwood, E. Glendening, M. Gutowski,
   A. C. Hess, J. Jaffe, B. G. Johnson, J. Ju, R. Kobayashi, R. Kutteh, Z. Lin,
   R. Littlefield, X. Long, B. Meng, T. Nakajima, S. Niu, L. Pollack, M. Rosing,
   K. Glaesemann, G. Sandrone, M. Stave, H. Taylor, G. Thomas, J. H. van Lenthe,
                               A. T. Wong, Z. Zhang.

 Total times  cpu:      203.4s     wall:      229.7s
        0.971812        0.028188        0.000000        0.000000        0.971812        0.028188        0.000000        0.000000