 argument  1 = /home/hvandam/nwchem-1-wfn1/QA/tests/wfn1-h2-6-31g-wfn1c14e/input-wf-6-31g-7.638692.nw



============================== echo of input deck ==============================
echo
start wfn1_dat
geometry units au noautoz
  H 0 0 -3.81934600000000000000
  H 0 0  3.81934600000000000000
  symmetry cs
end
basis
  H library 6-31g
end
set wfn1:input_vectors "atomic"
set wfn1:solver "monte-carlo"
set wfn1:print_error F
set wfn1:t_initial 0.1
#set wfn1:corr_expr "wfn1_mx"
set wfn1:corr_expr "wfn1c14"
#
set wfn1:fcd00  0.198826
set wfn1:fcd01  0.294438
set wfn1:fcd11  0.247007
set wfn1:fcd05  0.020225
set wfn1:fcd51  -0.098842
set wfn1:fcd55  -0.201236
#
set wfn1:rcd00  0.884548
set wfn1:rcd01  1.211432
set wfn1:rcd11  0.255064
set wfn1:rcd05  0.988291
set wfn1:rcd51  0.535281
set wfn1:rcd55  0.701049
#
set wfn1:fco00  -0.005884
set wfn1:fco01  0.063203
set wfn1:fco11  0.357171
set wfn1:fco05  0.019518
set wfn1:fco51  0.871725
set wfn1:fco55  1.051801
#
set wfn1:rco00  1.033050
set wfn1:rco01  0.850461
set wfn1:rco11  0.110139
set wfn1:rco05  0.985630
set wfn1:rco51  0.139729
set wfn1:rco55  0.918333
#
set wfn1:t_bath 0.0
set wfn1:maxit  20000
task wfn1 energy
================================================================================


                                         
                                         


              Northwest Computational Chemistry Package (NWChem) 6.8
              ------------------------------------------------------


                    Environmental Molecular Sciences Laboratory
                       Pacific Northwest National Laboratory
                                Richland, WA 99352

                              Copyright (c) 1994-2015
                       Pacific Northwest National Laboratory
                            Battelle Memorial Institute

             NWChem is an open-source computational chemistry package
                        distributed under the terms of the
                      Educational Community License (ECL) 2.0
             A copy of the license is included with this distribution
                              in the LICENSE.TXT file

                                  ACKNOWLEDGMENT
                                  --------------

            This software and its documentation were developed at the
            EMSL at Pacific Northwest National Laboratory, a multiprogram
            national laboratory, operated for the U.S. Department of Energy
            by Battelle under Contract Number DE-AC05-76RL01830. Support
            for this work was provided by the Department of Energy Office
            of Biological and Environmental Research, Office of Basic
            Energy Sciences, and the Office of Advanced Scientific Computing.


           Job information
           ---------------

    hostname        = node023
    program         = /home/hvandam/nwchem-1-wfn1/bin/LINUX64/nwchem
    date            = Thu Jun 17 23:51:05 2021

    compiled        = Sun_Jun_13_23:38:55_2021
    source          = /home/hvandam/nwchem-1-wfn1
    nwchem branch   = Development
    nwchem revision = nwchem_on_git-124-gad72d19fff205e319ffbbf2bca37a04ded6ad57b
    ga revision     = nwchem_on_git-124-gad72d19
    use scalapack   = F
    input           = /home/hvandam/nwchem-1-wfn1/QA/tests/wfn1-h2-6-31g-wfn1c14e/input-wf-6-31g-7.638692.nw
    prefix          = wfn1_dat.
    data base       = ./wfn1_dat.db
    status          = startup
    nproc           =        1
    time left       =     -1s



           Memory information
           ------------------

    heap     =   13107198 doubles =    100.0 Mbytes
    stack    =   13107195 doubles =    100.0 Mbytes
    global   =   26214400 doubles =    200.0 Mbytes (distinct from heap & stack)
    total    =   52428793 doubles =    400.0 Mbytes
    verify   = yes
    hardfail = no 


           Directory information
           ---------------------

  0 permanent = .
  0 scratch   = .




                                NWChem Input Module
                                -------------------


 Turning off AUTOSYM since
 SYMMETRY directive was detected!



                             Geometry "geometry" -> ""
                             -------------------------

 Output coordinates in a.u. (scale by  1.000000000 to convert to a.u.)

  No.       Tag          Charge          X              Y              Z
 ---- ---------------- ---------- -------------- -------------- --------------
    1 H                    1.0000     0.00000000     0.00000000    -3.81934600
    2 H                    1.0000     0.00000000     0.00000000     3.81934600

      Atomic Mass 
      ----------- 

      H                  1.007825


 Effective nuclear repulsion energy (a.u.)       0.1309124651

            Nuclear Dipole moment (a.u.) 
            ----------------------------
        X                 Y               Z
 ---------------- ---------------- ----------------
     0.0000000000     0.0000000000     0.0000000000

      Symmetry information
      --------------------

 Group name             Cs        
 Group number              2
 Group order               2
 No. of unique centers     1

      Symmetry unique atoms

     1


            XYZ format geometry
            -------------------
     2
 geometry
 H                     0.00000000     0.00000000    -2.02111101
 H                     0.00000000     0.00000000     2.02111101

                      Basis "ao basis" -> "" (cartesian)
                      -----
  H (Hydrogen)
  ------------
            Exponent  Coefficients 
       -------------- ---------------------------------------------------------
  1 S  1.87311370E+01  0.033495
  1 S  2.82539370E+00  0.234727
  1 S  6.40121700E-01  0.813757

  2 S  1.61277800E-01  1.000000



 Summary of "ao basis" -> "" (cartesian)
 ------------------------------------------------------------------------------
       Tag                 Description            Shells   Functions and Types
 ---------------- ------------------------------  ------  ---------------------
 H                           6-31g                   2        2   2s



                                NWChem WFN1 Module
                                ------------------



          No. of electrons :     2
           Alpha electrons :     1
            Beta electrons :     1
          Charge           :     0
          Spin multiplicity:     1

 HvD: wfn1_inpdft
 HvD: nquad_task =                     1
 HvD: iangquad   =                     0
 HvD: gridtype   = user      
 HvD: leb        =  T
 HvD: radgrid    = murakn    
 HvD: trunc_neigh=  T
 HvD: lssw       =  T
 HvD: whichssw   = erf1    
 HvD: mxnrad     =                     0
 HvD: mxnang     =                     0
 HVD: wfn1: movecs_in  = atomic                                                                                                                                                                                                                                                          
 HVD: wfn1: movecs_out = ./wfn1_dat.movecs                                                                                                                                                                                                                                               

      Superposition of Atomic Density Guess
      -------------------------------------

 Sum of atomic energies:          -0.99646508

      Non-variational initial energy
      ------------------------------

 Total energy =      -0.682114
 1-e energy   =      -1.258291
 2-e energy   =       0.445264
 HOMO         =      -0.194368
 LUMO         =      -0.187996

 iteration              energy           error
 ---------              ------           -----
         0         -0.98413013        0.020000
         1         -0.98445597        0.020000
         2         -0.98648639        0.020000
         3         -0.98689773        0.020000
         4         -0.98729259        0.020000
         5         -0.98777118        0.020000
         6         -0.98871515        0.020000
         7         -0.98918632        0.020000
         8         -0.98988547        0.020000
         9         -0.99088267        0.020000
        10         -0.99125647        0.020000
        11         -0.99128461        0.020000
        12         -0.99149601        0.020000
        13         -0.99166219        0.020000
        14         -0.99179760        0.020000
        15         -0.99201967        0.020000
        16         -0.99224095        0.020000
        17         -0.99233395        0.020000
        18         -0.99255077        0.020000
        19         -0.99260619        0.020000
        20         -0.99274437        0.020000
        21         -0.99299104        0.020000
        22         -0.99316528        0.020000
        23         -0.99320337        0.020000
        24         -0.99326755        0.020000
        25         -0.99326874        0.020000
        26         -0.99390452        0.020000
        27         -0.99392093        0.020000
        28         -0.99453734        0.020000
        29         -0.99476966        0.020000
        30         -0.99488222        0.020000
        31         -0.99500932        0.020000
        32         -0.99531201        0.020000
        33         -0.99547934        0.020000
        34         -0.99572735        0.020000
        35         -0.99574810        0.020000
        36         -0.99576700        0.020000
        37         -0.99600057        0.019807
        38         -0.99610222        0.019807
        39         -0.99612187        0.019491
        40         -0.99614085        0.017989
        41         -0.99615646        0.013916
        42         -0.99616208        0.013563
        43         -0.99616447        0.013563
        44         -0.99617287        0.013219
        45         -0.99618778        0.011515
        46         -0.99618888        0.009999
        47         -0.99619021        0.009746
        48         -0.99619576        0.009228
        49         -0.99620133        0.008489
        50         -0.99620426        0.008274
        51         -0.99620531        0.007835
        52         -0.99620733        0.006803
        53         -0.99620835        0.006803
        54         -0.99620850        0.006259
        55         -0.99621010        0.005776
        56         -0.99621025        0.004217
        57         -0.99621030        0.003769
        58         -0.99621297        0.003674
        59         -0.99621441        0.003674
        60         -0.99621488        0.003581
        61         -0.99621585        0.003119
        62         -0.99621688        0.002631
        63         -0.99621694        0.002565
        64         -0.99621764        0.001984
        65         -0.99621767        0.001773
        66         -0.99621774        0.001412
        67         -0.99621776        0.001124
        68         -0.99621777        0.001096
        69         -0.99621781        0.000979
        70         -0.99621783        0.000901
        71         -0.99621791        0.000901
        72         -0.99621792        0.000878
        73         -0.99621794        0.000810
        74         -0.99621796        0.000704
        75         -0.99621797        0.000594
        76         -0.99621798        0.000546
        77         -0.99621798        0.000399
        78         -0.99621798        0.000367
        79         -0.99621799        0.000347
        80         -0.99621799        0.000347
        81         -0.99621799        0.000339
        82         -0.99621800        0.000331
        83         -0.99621800        0.000313
        84         -0.99621800        0.000288
        85         -0.99621800        0.000281
        86         -0.99621800        0.000259
        87         -0.99621801        0.000231
        88         -0.99621801        0.000213
        89         -0.99621801        0.000196
        90         -0.99621801        0.000170
        91         -0.99621801        0.000135
        92         -0.99621801        0.000099
        93         -0.99621801        0.000086
        94         -0.99621801        0.000072
        95         -0.99621801        0.000072
        96         -0.99621801        0.000059
        97         -0.99621801        0.000043
        98         -0.99621801        0.000037
        99         -0.99621801        0.000028
       100         -0.99621801        0.000024
       101         -0.99621801        0.000021
       102         -0.99621801        0.000021
       103         -0.99621801        0.000017
       104         -0.99621801        0.000011
       105         -0.99621801        0.000009
       106         -0.99621801        0.000007
       107         -0.99621801        0.000005
       108         -0.99621801        0.000005
       109         -0.99621801        0.000003
       110         -0.99621801        0.000003
       111         -0.99621801        0.000003
       112         -0.99621801        0.000003
       113         -0.99621801        0.000002
       114         -0.99621801        0.000002
       115         -0.99621801        0.000002
       116         -0.99621801        0.000002
       117         -0.99621801        0.000002
       118         -0.99621801        0.000001
       119         -0.99621801        0.000001
       120         -0.99621801        0.000001
       121         -0.99621801        0.000001

 Reached Convergence

 WFN1                     :
 --------------------------
 Total WFN1 energy  =          -0.9962180113
 1-Electron energy  =          -1.2583319058
 2-Electron energy  =           0.3801526077
 Correlation energy =          -0.2489511783
 DFT XC energy      =           0.0000000000
 Entropy energy     =           0.0000000000
 Nuclear energy     =           0.1309124651

 conventional Hartree-Fock:
 --------------------------
 Total SCF energy  =          -0.9307698773
 2-Electron energy =           0.4456007417

                WFN1 Final Natural orbital energies and occupations
                ---------------------------------------------------

              Alpha       Beta            Alpha       Beta  
            --------    --------        --------    --------
       1      0.0000      0.0000          0.5059      0.5059
       2      0.0000      0.0000          0.4941      0.4941
       3      0.0000      0.0000          0.0000      0.0000
       4      0.0000      0.0000          0.0000      0.0000

             WFN1 Final Correlation function energies and occupations
             --------------------------------------------------------

              Alpha       Beta            Alpha       Beta  
            --------    --------        --------    --------
       1      0.0000      0.0000          1.0000      1.0000
       2      0.0000      0.0000          0.0000      0.0000
       3      0.0000      0.0000          0.0000      0.0000
       4      0.0000      0.0000          0.0000      0.0000

                WFN1 Final alpha-alpha 2-matrix occupation numbers
                --------------------------------------------------


 global array: g_momo1[1:4,1:4],  handle: -990 

            1           2           3           4  
       ----------- ----------- ----------- -----------
   1       0.00000     0.00000     0.00000     0.00000
   2       0.00000    -0.00000     0.00000     0.00000
   3      -0.00000     0.00000     0.00000     0.00000
   4       0.00000     0.00000     0.00000     0.00000

                 WFN1 Final beta-beta 2-matrix occupation numbers
                 ------------------------------------------------


 global array: g_momo2[1:4,1:4],  handle: -989 

            1           2           3           4  
       ----------- ----------- ----------- -----------
   1       0.00000     0.00000     0.00000     0.00000
   2       0.00000    -0.00000     0.00000     0.00000
   3      -0.00000     0.00000     0.00000     0.00000
   4       0.00000     0.00000     0.00000     0.00000

                  WFN1 Final alpha Correlation Function Analysis
                  ----------------------------------------------


 global array: Ca[1:4,1:4],  handle: -972 

                     1                       2                       3                       4  
       ----------------------- ----------------------- ----------------------- -----------------------
   1      -0.54528,   -0.45670    -0.53595,   -0.44798    -0.04275,   -0.05059     0.02134,    0.03623
   2      -0.69884,   -0.07552     0.70281,    0.07526     0.06458,    0.01837    -0.03824,   -0.01835
   3       0.00013,   -0.00004    -0.03088,    0.02425     0.64055,   -0.46559     0.50190,   -0.34564
   4      -0.00007,   -0.00009     0.07028,   -0.07734    -0.49956,    0.33832     0.66496,   -0.42766

                   WFN1 Final beta Correlation Function Analysis
                   ---------------------------------------------


 global array: Cb[1:4,1:4],  handle: -971 

                     1                       2                       3                       4  
       ----------------------- ----------------------- ----------------------- -----------------------
   1      -0.54528,   -0.45670    -0.53595,   -0.44798    -0.04275,   -0.05059     0.02134,    0.03623
   2      -0.69884,   -0.07552     0.70281,    0.07526     0.06458,    0.01837    -0.03824,   -0.01835
   3       0.00013,   -0.00004    -0.03088,    0.02425     0.64055,   -0.46559     0.50190,   -0.34564
   4      -0.00007,   -0.00009     0.07028,   -0.07734    -0.49956,    0.33832     0.66496,   -0.42766

                     WFN1 Final Alpha Natural Orbital Analysis
                     -----------------------------------------

 Vector    1  Occ=5.059140D-01  E= 0.000000D+00
              MO Center=  0.0D+00,  0.0D+00, -2.1D-07, r^2= 4.9D+00
   Bfn.  Coefficient  Atom+Function         Bfn.  Coefficient  Atom+Function  
  ----- ------------  ---------------      ----- ------------  ---------------
     2     -0.470253  1 H  s                  4     -0.470253  2 H  s          
     1     -0.300844  1 H  s                  3     -0.300844  2 H  s          

 Vector    2  Occ=4.940859D-01  E= 0.000000D+00
              MO Center=  0.0D+00,  0.0D+00,  2.0D-07, r^2= 4.9D+00
   Bfn.  Coefficient  Atom+Function         Bfn.  Coefficient  Atom+Function  
  ----- ------------  ---------------      ----- ------------  ---------------
     2      0.469250  1 H  s                  4     -0.469251  2 H  s          
     1      0.305353  1 H  s                  3     -0.305353  2 H  s          

 Vector    3  Occ=1.826813D-08  E= 0.000000D+00
              MO Center=  0.0D+00,  0.0D+00, -2.2D-01, r^2= 5.2D+00
   Bfn.  Coefficient  Atom+Function         Bfn.  Coefficient  Atom+Function  
  ----- ------------  ---------------      ----- ------------  ---------------
     1     -0.933861  1 H  s                  2      0.848364  1 H  s          
     3     -0.837249  2 H  s                  4      0.759268  2 H  s          

 Vector    4  Occ=1.402478D-08  E= 0.000000D+00
              MO Center=  0.0D+00,  0.0D+00,  2.2D-01, r^2= 5.3D+00
   Bfn.  Coefficient  Atom+Function         Bfn.  Coefficient  Atom+Function  
  ----- ------------  ---------------      ----- ------------  ---------------
     3      0.938182  2 H  s                  4     -0.864488  2 H  s          
     1     -0.842065  1 H  s                  2      0.777243  1 H  s          


                     WFN1 Final Beta Natural Orbital Analysis
                     ----------------------------------------

 Vector    1  Occ=5.059140D-01  E= 0.000000D+00
              MO Center=  0.0D+00,  0.0D+00, -2.1D-07, r^2= 4.9D+00
   Bfn.  Coefficient  Atom+Function         Bfn.  Coefficient  Atom+Function  
  ----- ------------  ---------------      ----- ------------  ---------------
     2     -0.470253  1 H  s                  4     -0.470253  2 H  s          
     1     -0.300844  1 H  s                  3     -0.300844  2 H  s          

 Vector    2  Occ=4.940859D-01  E= 0.000000D+00
              MO Center=  0.0D+00,  0.0D+00,  2.0D-07, r^2= 4.9D+00
   Bfn.  Coefficient  Atom+Function         Bfn.  Coefficient  Atom+Function  
  ----- ------------  ---------------      ----- ------------  ---------------
     2      0.469250  1 H  s                  4     -0.469251  2 H  s          
     1      0.305353  1 H  s                  3     -0.305353  2 H  s          

 Vector    3  Occ=1.826813D-08  E= 0.000000D+00
              MO Center=  0.0D+00,  0.0D+00, -2.2D-01, r^2= 5.2D+00
   Bfn.  Coefficient  Atom+Function         Bfn.  Coefficient  Atom+Function  
  ----- ------------  ---------------      ----- ------------  ---------------
     1     -0.933861  1 H  s                  2      0.848364  1 H  s          
     3     -0.837249  2 H  s                  4      0.759268  2 H  s          

 Vector    4  Occ=1.402478D-08  E= 0.000000D+00
              MO Center=  0.0D+00,  0.0D+00,  2.2D-01, r^2= 5.3D+00
   Bfn.  Coefficient  Atom+Function         Bfn.  Coefficient  Atom+Function  
  ----- ------------  ---------------      ----- ------------  ---------------
     3      0.938182  2 H  s                  4     -0.864488  2 H  s          
     1     -0.842065  1 H  s                  2      0.777243  1 H  s          


 Task  times  cpu:      184.6s     wall:      209.0s
 Summary of allocated global arrays
-----------------------------------
  No active global arrays



                         GA Statistics for process    0
                         ------------------------------

       create   destroy   get      put      acc     scatter   gather  read&inc
calls:   61       61     4.76e+07 2.11e+05 1.62e+05    0        0       11     
number of processes/call 1.00e+00 1.00e+00 1.00e+00 0.00e+00 0.00e+00
bytes total:             6.13e+09 3.83e+07 2.70e+07 0.00e+00 0.00e+00 8.80e+01
bytes remote:            0.00e+00 0.00e+00 0.00e+00 0.00e+00 0.00e+00 0.00e+00
Max memory consumed for GA by this process: 12160 bytes
MA_summarize_allocated_blocks: starting scan ...
MA_summarize_allocated_blocks: scan completed: 0 heap blocks, 0 stack blocks
MA usage statistics:

	allocation statistics:
					      heap	     stack
					      ----	     -----
	current number of blocks	         0	         0
	maximum number of blocks	        19	        17
	current total bytes		         0	         0
	maximum total bytes		   3204344	  22508664
	maximum total K-bytes		      3205	     22509
	maximum total M-bytes		         4	        23


                                NWChem Input Module
                                -------------------





                                     CITATION
                                     --------
                Please cite the following reference when publishing
                           results obtained with NWChem:

                 M. Valiev, E.J. Bylaska, N. Govind, K. Kowalski,
              T.P. Straatsma, H.J.J. van Dam, D. Wang, J. Nieplocha,
                        E. Apra, T.L. Windus, W.A. de Jong
                 "NWChem: a comprehensive and scalable open-source
                  solution for large scale molecular simulations"
                      Comput. Phys. Commun. 181, 1477 (2010)
                           doi:10.1016/j.cpc.2010.04.018

                                      AUTHORS
                                      -------
          E. Apra, E. J. Bylaska, W. A. de Jong, N. Govind, K. Kowalski,
       T. P. Straatsma, M. Valiev, H. J. J. van Dam, D. Wang, T. L. Windus,
        J. Hammond, J. Autschbach, K. Bhaskaran-Nair, J. Brabec, K. Lopata,
    S. A. Fischer, S. Krishnamoorthy, M. Jacquelin, W. Ma, M. Klemm, O. Villa,
      Y. Chen, V. Anisimov, F. Aquino, S. Hirata, M. T. Hackler, V. Konjkov,
      T. Risthaus, M. Malagoli, A. Marenich, A. Otero-de-la-Roza, J. Mullin,
        P. Nichols, R. Peverati, J. Pittner, Y. Zhao, P.-D. Fan, A. Fonari,
       M. Williamson, R. J. Harrison, J. R. Rehr, M. Dupuis, D. Silverstein,
    D. M. A. Smith, J. Nieplocha, V. Tipparaju, M. Krishnan, B. E. Van Kuiken,
        A. Vazquez-Mayagoitia, L. Jensen, M. Swart, Q. Wu, T. Van Voorhis,
     A. A. Auer, M. Nooijen, L. D. Crosby, E. Brown, G. Cisneros, G. I. Fann,
   H. Fruchtl, J. Garza, K. Hirao, R. A. Kendall, J. A. Nichols, K. Tsemekhman,
    K. Wolinski, J. Anchell, D. E. Bernholdt, P. Borowski, T. Clark, D. Clerc,
   H. Dachsel, M. J. O. Deegan, K. Dyall, D. Elwood, E. Glendening, M. Gutowski,
   A. C. Hess, J. Jaffe, B. G. Johnson, J. Ju, R. Kobayashi, R. Kutteh, Z. Lin,
   R. Littlefield, X. Long, B. Meng, T. Nakajima, S. Niu, L. Pollack, M. Rosing,
   K. Glaesemann, G. Sandrone, M. Stave, H. Taylor, G. Thomas, J. H. van Lenthe,
                               A. T. Wong, Z. Zhang.

 Total times  cpu:      184.6s     wall:      209.0s
        0.505914        0.494086        0.000000        0.000000        0.505914        0.494086        0.000000        0.000000