 argument  1 = /home/hvandam/nwchem-1-wfn1/QA/tests/wfn1-h2-6-31g-wfn1c14e/input-wf-6-31g-4.388692.nw



============================== echo of input deck ==============================
echo
start wfn1_dat
geometry units au noautoz
  H 0 0 -2.19434600000000000000
  H 0 0  2.19434600000000000000
  symmetry cs
end
basis
  H library 6-31g
end
set wfn1:input_vectors "atomic"
set wfn1:solver "monte-carlo"
set wfn1:print_error F
set wfn1:t_initial 0.1
#set wfn1:corr_expr "wfn1_mx"
set wfn1:corr_expr "wfn1c14"
#
set wfn1:fcd00  0.198826
set wfn1:fcd01  0.294438
set wfn1:fcd11  0.247007
set wfn1:fcd05  0.020225
set wfn1:fcd51  -0.098842
set wfn1:fcd55  -0.201236
#
set wfn1:rcd00  0.884548
set wfn1:rcd01  1.211432
set wfn1:rcd11  0.255064
set wfn1:rcd05  0.988291
set wfn1:rcd51  0.535281
set wfn1:rcd55  0.701049
#
set wfn1:fco00  -0.005884
set wfn1:fco01  0.063203
set wfn1:fco11  0.357171
set wfn1:fco05  0.019518
set wfn1:fco51  0.871725
set wfn1:fco55  1.051801
#
set wfn1:rco00  1.033050
set wfn1:rco01  0.850461
set wfn1:rco11  0.110139
set wfn1:rco05  0.985630
set wfn1:rco51  0.139729
set wfn1:rco55  0.918333
#
set wfn1:t_bath 0.0
set wfn1:maxit  20000
task wfn1 energy
================================================================================


                                         
                                         


              Northwest Computational Chemistry Package (NWChem) 6.8
              ------------------------------------------------------


                    Environmental Molecular Sciences Laboratory
                       Pacific Northwest National Laboratory
                                Richland, WA 99352

                              Copyright (c) 1994-2015
                       Pacific Northwest National Laboratory
                            Battelle Memorial Institute

             NWChem is an open-source computational chemistry package
                        distributed under the terms of the
                      Educational Community License (ECL) 2.0
             A copy of the license is included with this distribution
                              in the LICENSE.TXT file

                                  ACKNOWLEDGMENT
                                  --------------

            This software and its documentation were developed at the
            EMSL at Pacific Northwest National Laboratory, a multiprogram
            national laboratory, operated for the U.S. Department of Energy
            by Battelle under Contract Number DE-AC05-76RL01830. Support
            for this work was provided by the Department of Energy Office
            of Biological and Environmental Research, Office of Basic
            Energy Sciences, and the Office of Advanced Scientific Computing.


           Job information
           ---------------

    hostname        = node023
    program         = /home/hvandam/nwchem-1-wfn1/bin/LINUX64/nwchem
    date            = Thu Jun 17 23:47:25 2021

    compiled        = Sun_Jun_13_23:38:55_2021
    source          = /home/hvandam/nwchem-1-wfn1
    nwchem branch   = Development
    nwchem revision = nwchem_on_git-124-gad72d19fff205e319ffbbf2bca37a04ded6ad57b
    ga revision     = nwchem_on_git-124-gad72d19
    use scalapack   = F
    input           = /home/hvandam/nwchem-1-wfn1/QA/tests/wfn1-h2-6-31g-wfn1c14e/input-wf-6-31g-4.388692.nw
    prefix          = wfn1_dat.
    data base       = ./wfn1_dat.db
    status          = startup
    nproc           =        1
    time left       =     -1s



           Memory information
           ------------------

    heap     =   13107200 doubles =    100.0 Mbytes
    stack    =   13107197 doubles =    100.0 Mbytes
    global   =   26214400 doubles =    200.0 Mbytes (distinct from heap & stack)
    total    =   52428797 doubles =    400.0 Mbytes
    verify   = yes
    hardfail = no 


           Directory information
           ---------------------

  0 permanent = .
  0 scratch   = .




                                NWChem Input Module
                                -------------------


 Turning off AUTOSYM since
 SYMMETRY directive was detected!



                             Geometry "geometry" -> ""
                             -------------------------

 Output coordinates in a.u. (scale by  1.000000000 to convert to a.u.)

  No.       Tag          Charge          X              Y              Z
 ---- ---------------- ---------- -------------- -------------- --------------
    1 H                    1.0000     0.00000000     0.00000000    -2.19434600
    2 H                    1.0000     0.00000000     0.00000000     2.19434600

      Atomic Mass 
      ----------- 

      H                  1.007825


 Effective nuclear repulsion energy (a.u.)       0.2278583232

            Nuclear Dipole moment (a.u.) 
            ----------------------------
        X                 Y               Z
 ---------------- ---------------- ----------------
     0.0000000000     0.0000000000     0.0000000000

      Symmetry information
      --------------------

 Group name             Cs        
 Group number              2
 Group order               2
 No. of unique centers     1

      Symmetry unique atoms

     1


            XYZ format geometry
            -------------------
     2
 geometry
 H                     0.00000000     0.00000000    -1.16119798
 H                     0.00000000     0.00000000     1.16119798

                      Basis "ao basis" -> "" (cartesian)
                      -----
  H (Hydrogen)
  ------------
            Exponent  Coefficients 
       -------------- ---------------------------------------------------------
  1 S  1.87311370E+01  0.033495
  1 S  2.82539370E+00  0.234727
  1 S  6.40121700E-01  0.813757

  2 S  1.61277800E-01  1.000000



 Summary of "ao basis" -> "" (cartesian)
 ------------------------------------------------------------------------------
       Tag                 Description            Shells   Functions and Types
 ---------------- ------------------------------  ------  ---------------------
 H                           6-31g                   2        2   2s



                                NWChem WFN1 Module
                                ------------------



          No. of electrons :     2
           Alpha electrons :     1
            Beta electrons :     1
          Charge           :     0
          Spin multiplicity:     1

 HvD: wfn1_inpdft
 HvD: nquad_task =                     1
 HvD: iangquad   =                     0
 HvD: gridtype   = user      
 HvD: leb        =  T
 HvD: radgrid    = murakn    
 HvD: trunc_neigh=  T
 HvD: lssw       =  T
 HvD: whichssw   = erf1    
 HvD: mxnrad     =                     0
 HvD: mxnang     =                     0
 HVD: wfn1: movecs_in  = atomic                                                                                                                                                                                                                                                          
 HVD: wfn1: movecs_out = ./wfn1_dat.movecs                                                                                                                                                                                                                                               

      Superposition of Atomic Density Guess
      -------------------------------------

 Sum of atomic energies:          -0.99646508

      Non-variational initial energy
      ------------------------------

 Total energy =      -0.686435
 1-e energy   =      -1.452097
 2-e energy   =       0.537804
 HOMO         =      -0.240347
 LUMO         =      -0.137367

 iteration              energy           error
 ---------              ------           -----
         0         -0.99211930        0.020000
         1         -0.99281610        0.020000
         2         -0.99337093        0.020000
         3         -0.99390567        0.020000
         4         -0.99458866        0.020000
         5         -0.99468084        0.020000
         6         -0.99587889        0.020000
         7         -0.99721753        0.020000
         8         -0.99831501        0.020000
         9         -0.99867749        0.020000
        10         -0.99927462        0.020000
        11         -0.99999088        0.020000
        12         -1.00069232        0.020000
        13         -1.00087275        0.020000
        14         -1.00094847        0.020000
        15         -1.00121822        0.020000
        16         -1.00135456        0.020000
        17         -1.00136602        0.020000
        18         -1.00148575        0.020000
        19         -1.00148897        0.020000
        20         -1.00165871        0.020000
        21         -1.00183887        0.020000
        22         -1.00198119        0.020000
        23         -1.00202129        0.020000
        24         -1.00203112        0.017590
        25         -1.00209439        0.016656
        26         -1.00209816        0.016234
        27         -1.00210316        0.015822
        28         -1.00210997        0.015421
        29         -1.00212395        0.015421
        30         -1.00213051        0.015421
        31         -1.00213186        0.013009
        32         -1.00213504        0.011369
        33         -1.00213689        0.009591
        34         -1.00214428        0.009081
        35         -1.00214474        0.008851
        36         -1.00215097        0.008143
        37         -1.00216802        0.008143
        38         -1.00216810        0.007710
        39         -1.00216833        0.004231
        40         -1.00216842        0.004124
        41         -1.00216977        0.003905
        42         -1.00216994        0.003592
        43         -1.00217105        0.003305
        44         -1.00217131        0.003221
        45         -1.00217166        0.002963
        46         -1.00217243        0.002963
        47         -1.00217280        0.002429
        48         -1.00217287        0.002178
        49         -1.00217295        0.001837
        50         -1.00217310        0.001837
        51         -1.00217310        0.001550
        52         -1.00217317        0.001515
        53         -1.00217337        0.001515
        54         -1.00217337        0.001207
        55         -1.00217339        0.000936
        56         -1.00217340        0.000861
        57         -1.00217340        0.000861
        58         -1.00217343        0.000706
        59         -1.00217343        0.000706
        60         -1.00217344        0.000706
        61         -1.00217344        0.000652
        62         -1.00217344        0.000652
        63         -1.00217347        0.000639
        64         -1.00217347        0.000573
        65         -1.00217349        0.000527
        66         -1.00217350        0.000499
        67         -1.00217351        0.000459
        68         -1.00217351        0.000335
        69         -1.00217351        0.000267
        70         -1.00217351        0.000213
        71         -1.00217351        0.000213
        72         -1.00217351        0.000201
        73         -1.00217352        0.000152
        74         -1.00217352        0.000140
        75         -1.00217352        0.000118
        76         -1.00217352        0.000064
        77         -1.00217352        0.000058
        78         -1.00217352        0.000053
        79         -1.00217352        0.000053
        80         -1.00217352        0.000046
        81         -1.00217352        0.000037
        82         -1.00217352        0.000035
        83         -1.00217352        0.000023
        84         -1.00217352        0.000021
        85         -1.00217352        0.000021
        86         -1.00217352        0.000021
        87         -1.00217352        0.000021
        88         -1.00217352        0.000016
        89         -1.00217352        0.000012
        90         -1.00217352        0.000012
        91         -1.00217352        0.000010
        92         -1.00217352        0.000010
        93         -1.00217352        0.000010
        94         -1.00217352        0.000009
        95         -1.00217352        0.000006
        96         -1.00217352        0.000005
        97         -1.00217352        0.000004
        98         -1.00217352        0.000003
        99         -1.00217352        0.000003
       100         -1.00217352        0.000003
       101         -1.00217352        0.000002
       102         -1.00217352        0.000002
       103         -1.00217352        0.000001
       104         -1.00217352        0.000001
       105         -1.00217352        0.000001
       106         -1.00217352        0.000001
       107         -1.00217352        0.000001
       108         -1.00217352        0.000001
       109         -1.00217352        0.000001
       110         -1.00217352        0.000001

 Reached Convergence

 WFN1                     :
 --------------------------
 Total WFN1 energy  =          -1.0021735174
 1-Electron energy  =          -1.4676837150
 2-Electron energy  =           0.4231038676
 Correlation energy =          -0.1854519932
 DFT XC energy      =           0.0000000000
 Entropy energy     =           0.0000000000
 Nuclear energy     =           0.2278583232

 conventional Hartree-Fock:
 --------------------------
 Total SCF energy  =          -0.9039664055
 2-Electron energy =           0.5213109795

                WFN1 Final Natural orbital energies and occupations
                ---------------------------------------------------

              Alpha       Beta            Alpha       Beta  
            --------    --------        --------    --------
       1      0.0000      0.0000          0.6759      0.6759
       2      0.0000      0.0000          0.3241      0.3241
       3      0.0000      0.0000          0.0000      0.0000
       4      0.0000      0.0000          0.0000      0.0000

             WFN1 Final Correlation function energies and occupations
             --------------------------------------------------------

              Alpha       Beta            Alpha       Beta  
            --------    --------        --------    --------
       1      0.0000      0.0000          1.0000      1.0000
       2      0.0000      0.0000          0.0000      0.0000
       3      0.0000      0.0000          0.0000      0.0000
       4      0.0000      0.0000          0.0000      0.0000

                WFN1 Final alpha-alpha 2-matrix occupation numbers
                --------------------------------------------------


 global array: g_momo1[1:4,1:4],  handle: -990 

            1           2           3           4  
       ----------- ----------- ----------- -----------
   1      -0.00000     0.00000     0.00000     0.00000
   2      -0.00000     0.00000     0.00000     0.00000
   3      -0.00000     0.00000     0.00000     0.00000
   4       0.00000     0.00000     0.00000     0.00000

                 WFN1 Final beta-beta 2-matrix occupation numbers
                 ------------------------------------------------


 global array: g_momo2[1:4,1:4],  handle: -989 

            1           2           3           4  
       ----------- ----------- ----------- -----------
   1      -0.00000     0.00000     0.00000     0.00000
   2      -0.00000     0.00000     0.00000     0.00000
   3      -0.00000     0.00000     0.00000     0.00000
   4       0.00000     0.00000     0.00000     0.00000

                  WFN1 Final alpha Correlation Function Analysis
                  ----------------------------------------------


 global array: Ca[1:4,1:4],  handle: -976 

                     1                       2                       3                       4  
       ----------------------- ----------------------- ----------------------- -----------------------
   1       0.56410,   -0.59808    -0.42055,    0.38286    -0.00787,   -0.01145     0.01485,   -0.01486
   2      -0.55129,    0.14198    -0.80866,    0.14379    -0.00071,   -0.02026     0.02937,   -0.00632
   3       0.00023,    0.00012    -0.01232,    0.02424     0.72588,   -0.28370    -0.58291,    0.22823
   4       0.00005,    0.00011    -0.02100,   -0.02771    -0.56813,   -0.26313    -0.70763,   -0.32566

                   WFN1 Final beta Correlation Function Analysis
                   ---------------------------------------------


 global array: Cb[1:4,1:4],  handle: -975 

                     1                       2                       3                       4  
       ----------------------- ----------------------- ----------------------- -----------------------
   1       0.56410,   -0.59808    -0.42055,    0.38286    -0.00787,   -0.01145     0.01485,   -0.01486
   2      -0.55129,    0.14198    -0.80866,    0.14379    -0.00071,   -0.02026     0.02937,   -0.00632
   3       0.00023,    0.00012    -0.01232,    0.02424     0.72588,   -0.28370    -0.58291,    0.22823
   4       0.00005,    0.00011    -0.02100,   -0.02771    -0.56813,   -0.26313    -0.70763,   -0.32566

                     WFN1 Final Alpha Natural Orbital Analysis
                     -----------------------------------------

 Vector    1  Occ=6.759168D-01  E= 0.000000D+00
              MO Center=  0.0D+00,  0.0D+00, -6.0D-07, r^2= 2.1D+00
   Bfn.  Coefficient  Atom+Function         Bfn.  Coefficient  Atom+Function  
  ----- ------------  ---------------      ----- ------------  ---------------
     2      0.456943  1 H  s                  4      0.456943  2 H  s          
     1      0.268797  1 H  s                  3      0.268797  2 H  s          

 Vector    2  Occ=3.240831D-01  E= 0.000000D+00
              MO Center=  0.0D+00,  0.0D+00,  5.7D-07, r^2= 2.3D+00
   Bfn.  Coefficient  Atom+Function         Bfn.  Coefficient  Atom+Function  
  ----- ------------  ---------------      ----- ------------  ---------------
     2      0.493265  1 H  s                  4     -0.493265  2 H  s          
     1      0.331822  1 H  s                  3     -0.331822  2 H  s          

 Vector    3  Occ=6.552693D-08  E= 0.000000D+00
              MO Center=  0.0D+00,  0.0D+00, -1.3D-01, r^2= 2.3D+00
   Bfn.  Coefficient  Atom+Function         Bfn.  Coefficient  Atom+Function  
  ----- ------------  ---------------      ----- ------------  ---------------
     1      0.933005  1 H  s                  3      0.835059  2 H  s          
     2     -0.757504  1 H  s                  4     -0.652880  2 H  s          

 Vector    4  Occ=1.427353D-08  E= 0.000000D+00
              MO Center=  0.0D+00,  0.0D+00,  1.3D-01, r^2= 3.0D+00
   Bfn.  Coefficient  Atom+Function         Bfn.  Coefficient  Atom+Function  
  ----- ------------  ---------------      ----- ------------  ---------------
     4     -1.008028  2 H  s                  3      0.955761  2 H  s          
     2      0.931965  1 H  s                  1     -0.860409  1 H  s          


                     WFN1 Final Beta Natural Orbital Analysis
                     ----------------------------------------

 Vector    1  Occ=6.759168D-01  E= 0.000000D+00
              MO Center=  0.0D+00,  0.0D+00, -6.0D-07, r^2= 2.1D+00
   Bfn.  Coefficient  Atom+Function         Bfn.  Coefficient  Atom+Function  
  ----- ------------  ---------------      ----- ------------  ---------------
     2      0.456943  1 H  s                  4      0.456943  2 H  s          
     1      0.268797  1 H  s                  3      0.268797  2 H  s          

 Vector    2  Occ=3.240831D-01  E= 0.000000D+00
              MO Center=  0.0D+00,  0.0D+00,  5.7D-07, r^2= 2.3D+00
   Bfn.  Coefficient  Atom+Function         Bfn.  Coefficient  Atom+Function  
  ----- ------------  ---------------      ----- ------------  ---------------
     2      0.493265  1 H  s                  4     -0.493265  2 H  s          
     1      0.331822  1 H  s                  3     -0.331822  2 H  s          

 Vector    3  Occ=6.552693D-08  E= 0.000000D+00
              MO Center=  0.0D+00,  0.0D+00, -1.3D-01, r^2= 2.3D+00
   Bfn.  Coefficient  Atom+Function         Bfn.  Coefficient  Atom+Function  
  ----- ------------  ---------------      ----- ------------  ---------------
     1      0.933005  1 H  s                  3      0.835059  2 H  s          
     2     -0.757504  1 H  s                  4     -0.652880  2 H  s          

 Vector    4  Occ=1.427353D-08  E= 0.000000D+00
              MO Center=  0.0D+00,  0.0D+00,  1.3D-01, r^2= 3.0D+00
   Bfn.  Coefficient  Atom+Function         Bfn.  Coefficient  Atom+Function  
  ----- ------------  ---------------      ----- ------------  ---------------
     4     -1.008028  2 H  s                  3      0.955761  2 H  s          
     2      0.931965  1 H  s                  1     -0.860409  1 H  s          


 Task  times  cpu:      188.3s     wall:      212.3s
 Summary of allocated global arrays
-----------------------------------
  No active global arrays



                         GA Statistics for process    0
                         ------------------------------

       create   destroy   get      put      acc     scatter   gather  read&inc
calls:   61       61     4.68e+07 2.07e+05 1.59e+05    0        0       11     
number of processes/call 1.00e+00 1.00e+00 1.00e+00 0.00e+00 0.00e+00
bytes total:             6.03e+09 3.77e+07 2.65e+07 0.00e+00 0.00e+00 8.80e+01
bytes remote:            0.00e+00 0.00e+00 0.00e+00 0.00e+00 0.00e+00 0.00e+00
Max memory consumed for GA by this process: 12160 bytes
MA_summarize_allocated_blocks: starting scan ...
MA_summarize_allocated_blocks: scan completed: 0 heap blocks, 0 stack blocks
MA usage statistics:

	allocation statistics:
					      heap	     stack
					      ----	     -----
	current number of blocks	         0	         0
	maximum number of blocks	        19	        17
	current total bytes		         0	         0
	maximum total bytes		   3204328	  22508616
	maximum total K-bytes		      3205	     22509
	maximum total M-bytes		         4	        23


                                NWChem Input Module
                                -------------------





                                     CITATION
                                     --------
                Please cite the following reference when publishing
                           results obtained with NWChem:

                 M. Valiev, E.J. Bylaska, N. Govind, K. Kowalski,
              T.P. Straatsma, H.J.J. van Dam, D. Wang, J. Nieplocha,
                        E. Apra, T.L. Windus, W.A. de Jong
                 "NWChem: a comprehensive and scalable open-source
                  solution for large scale molecular simulations"
                      Comput. Phys. Commun. 181, 1477 (2010)
                           doi:10.1016/j.cpc.2010.04.018

                                      AUTHORS
                                      -------
          E. Apra, E. J. Bylaska, W. A. de Jong, N. Govind, K. Kowalski,
       T. P. Straatsma, M. Valiev, H. J. J. van Dam, D. Wang, T. L. Windus,
        J. Hammond, J. Autschbach, K. Bhaskaran-Nair, J. Brabec, K. Lopata,
    S. A. Fischer, S. Krishnamoorthy, M. Jacquelin, W. Ma, M. Klemm, O. Villa,
      Y. Chen, V. Anisimov, F. Aquino, S. Hirata, M. T. Hackler, V. Konjkov,
      T. Risthaus, M. Malagoli, A. Marenich, A. Otero-de-la-Roza, J. Mullin,
        P. Nichols, R. Peverati, J. Pittner, Y. Zhao, P.-D. Fan, A. Fonari,
       M. Williamson, R. J. Harrison, J. R. Rehr, M. Dupuis, D. Silverstein,
    D. M. A. Smith, J. Nieplocha, V. Tipparaju, M. Krishnan, B. E. Van Kuiken,
        A. Vazquez-Mayagoitia, L. Jensen, M. Swart, Q. Wu, T. Van Voorhis,
     A. A. Auer, M. Nooijen, L. D. Crosby, E. Brown, G. Cisneros, G. I. Fann,
   H. Fruchtl, J. Garza, K. Hirao, R. A. Kendall, J. A. Nichols, K. Tsemekhman,
    K. Wolinski, J. Anchell, D. E. Bernholdt, P. Borowski, T. Clark, D. Clerc,
   H. Dachsel, M. J. O. Deegan, K. Dyall, D. Elwood, E. Glendening, M. Gutowski,
   A. C. Hess, J. Jaffe, B. G. Johnson, J. Ju, R. Kobayashi, R. Kutteh, Z. Lin,
   R. Littlefield, X. Long, B. Meng, T. Nakajima, S. Niu, L. Pollack, M. Rosing,
   K. Glaesemann, G. Sandrone, M. Stave, H. Taylor, G. Thomas, J. H. van Lenthe,
                               A. T. Wong, Z. Zhang.

 Total times  cpu:      188.3s     wall:      212.4s
        0.675917        0.324083        0.000000        0.000000        0.675917        0.324083        0.000000        0.000000