 argument  1 = /home/hvandam/nwchem-1-wfn1/QA/tests/wfn1-h2-6-31g-wfn1c14e/input-wf-6-31g-8.388692.nw



============================== echo of input deck ==============================
echo
start wfn1_dat
geometry units au noautoz
  H 0 0 -4.19434600000000000000
  H 0 0  4.19434600000000000000
  symmetry cs
end
basis
  H library 6-31g
end
set wfn1:input_vectors "atomic"
set wfn1:solver "monte-carlo"
set wfn1:print_error F
set wfn1:t_initial 0.1
#set wfn1:corr_expr "wfn1_mx"
set wfn1:corr_expr "wfn1c14"
#
set wfn1:fcd00  0.198826
set wfn1:fcd01  0.294438
set wfn1:fcd11  0.247007
set wfn1:fcd05  0.020225
set wfn1:fcd51  -0.098842
set wfn1:fcd55  -0.201236
#
set wfn1:rcd00  0.884548
set wfn1:rcd01  1.211432
set wfn1:rcd11  0.255064
set wfn1:rcd05  0.988291
set wfn1:rcd51  0.535281
set wfn1:rcd55  0.701049
#
set wfn1:fco00  -0.005884
set wfn1:fco01  0.063203
set wfn1:fco11  0.357171
set wfn1:fco05  0.019518
set wfn1:fco51  0.871725
set wfn1:fco55  1.051801
#
set wfn1:rco00  1.033050
set wfn1:rco01  0.850461
set wfn1:rco11  0.110139
set wfn1:rco05  0.985630
set wfn1:rco51  0.139729
set wfn1:rco55  0.918333
#
set wfn1:t_bath 0.0
set wfn1:maxit  20000
task wfn1 energy
================================================================================


                                         
                                         


              Northwest Computational Chemistry Package (NWChem) 6.8
              ------------------------------------------------------


                    Environmental Molecular Sciences Laboratory
                       Pacific Northwest National Laboratory
                                Richland, WA 99352

                              Copyright (c) 1994-2015
                       Pacific Northwest National Laboratory
                            Battelle Memorial Institute

             NWChem is an open-source computational chemistry package
                        distributed under the terms of the
                      Educational Community License (ECL) 2.0
             A copy of the license is included with this distribution
                              in the LICENSE.TXT file

                                  ACKNOWLEDGMENT
                                  --------------

            This software and its documentation were developed at the
            EMSL at Pacific Northwest National Laboratory, a multiprogram
            national laboratory, operated for the U.S. Department of Energy
            by Battelle under Contract Number DE-AC05-76RL01830. Support
            for this work was provided by the Department of Energy Office
            of Biological and Environmental Research, Office of Basic
            Energy Sciences, and the Office of Advanced Scientific Computing.


           Job information
           ---------------

    hostname        = node023
    program         = /home/hvandam/nwchem-1-wfn1/bin/LINUX64/nwchem
    date            = Thu Jun 17 23:51:11 2021

    compiled        = Sun_Jun_13_23:38:55_2021
    source          = /home/hvandam/nwchem-1-wfn1
    nwchem branch   = Development
    nwchem revision = nwchem_on_git-124-gad72d19fff205e319ffbbf2bca37a04ded6ad57b
    ga revision     = nwchem_on_git-124-gad72d19
    use scalapack   = F
    input           = /home/hvandam/nwchem-1-wfn1/QA/tests/wfn1-h2-6-31g-wfn1c14e/input-wf-6-31g-8.388692.nw
    prefix          = wfn1_dat.
    data base       = ./wfn1_dat.db
    status          = startup
    nproc           =        1
    time left       =     -1s



           Memory information
           ------------------

    heap     =   13107194 doubles =    100.0 Mbytes
    stack    =   13107199 doubles =    100.0 Mbytes
    global   =   26214400 doubles =    200.0 Mbytes (distinct from heap & stack)
    total    =   52428793 doubles =    400.0 Mbytes
    verify   = yes
    hardfail = no 


           Directory information
           ---------------------

  0 permanent = .
  0 scratch   = .




                                NWChem Input Module
                                -------------------


 Turning off AUTOSYM since
 SYMMETRY directive was detected!



                             Geometry "geometry" -> ""
                             -------------------------

 Output coordinates in a.u. (scale by  1.000000000 to convert to a.u.)

  No.       Tag          Charge          X              Y              Z
 ---- ---------------- ---------- -------------- -------------- --------------
    1 H                    1.0000     0.00000000     0.00000000    -4.19434600
    2 H                    1.0000     0.00000000     0.00000000     4.19434600

      Atomic Mass 
      ----------- 

      H                  1.007825


 Effective nuclear repulsion energy (a.u.)       0.1192080959

            Nuclear Dipole moment (a.u.) 
            ----------------------------
        X                 Y               Z
 ---------------- ---------------- ----------------
     0.0000000000     0.0000000000     0.0000000000

      Symmetry information
      --------------------

 Group name             Cs        
 Group number              2
 Group order               2
 No. of unique centers     1

      Symmetry unique atoms

     1


            XYZ format geometry
            -------------------
     2
 geometry
 H                     0.00000000     0.00000000    -2.21955248
 H                     0.00000000     0.00000000     2.21955248

                      Basis "ao basis" -> "" (cartesian)
                      -----
  H (Hydrogen)
  ------------
            Exponent  Coefficients 
       -------------- ---------------------------------------------------------
  1 S  1.87311370E+01  0.033495
  1 S  2.82539370E+00  0.234727
  1 S  6.40121700E-01  0.813757

  2 S  1.61277800E-01  1.000000



 Summary of "ao basis" -> "" (cartesian)
 ------------------------------------------------------------------------------
       Tag                 Description            Shells   Functions and Types
 ---------------- ------------------------------  ------  ---------------------
 H                           6-31g                   2        2   2s



                                NWChem WFN1 Module
                                ------------------



          No. of electrons :     2
           Alpha electrons :     1
            Beta electrons :     1
          Charge           :     0
          Spin multiplicity:     1

 HvD: wfn1_inpdft
 HvD: nquad_task =                     1
 HvD: iangquad   =                     0
 HvD: gridtype   = user      
 HvD: leb        =  T
 HvD: radgrid    = murakn    
 HvD: trunc_neigh=  T
 HvD: lssw       =  T
 HvD: whichssw   = erf1    
 HvD: mxnrad     =                     0
 HvD: mxnang     =                     0
 HVD: wfn1: movecs_in  = atomic                                                                                                                                                                                                                                                          
 HVD: wfn1: movecs_out = ./wfn1_dat.movecs                                                                                                                                                                                                                                               

      Superposition of Atomic Density Guess
      -------------------------------------

 Sum of atomic energies:          -0.99646508

      Non-variational initial energy
      ------------------------------

 Total energy =      -0.682110
 1-e energy   =      -1.234882
 2-e energy   =       0.433564
 HOMO         =      -0.192615
 LUMO         =      -0.189757

 iteration              energy           error
 ---------              ------           -----
         0         -0.98446197        0.020000
         1         -0.98491822        0.020000
         2         -0.98494035        0.020000
         3         -0.98613057        0.020000
         4         -0.98653863        0.020000
         5         -0.98713965        0.020000
         6         -0.98888154        0.020000
         7         -0.99053224        0.020000
         8         -0.99079371        0.020000
         9         -0.99163674        0.020000
        10         -0.99257142        0.020000
        11         -0.99275025        0.020000
        12         -0.99309456        0.020000
        13         -0.99374134        0.020000
        14         -0.99467677        0.020000
        15         -0.99493801        0.020000
        16         -0.99539637        0.020000
        17         -0.99554052        0.020000
        18         -0.99597386        0.020000
        19         -0.99605813        0.020000
        20         -0.99607682        0.020000
        21         -0.99622631        0.020000
        22         -0.99625675        0.020000
        23         -0.99629345        0.020000
        24         -0.99630811        0.019681
        25         -0.99635883        0.019681
        26         -0.99642429        0.018163
        27         -0.99646619        0.018163
        28         -0.99646938        0.016763
        29         -0.99647854        0.012639
        30         -0.99649007        0.011627
        31         -0.99649205        0.011010
        32         -0.99650551        0.007372
        33         -0.99650763        0.006401
        34         -0.99650882        0.003930
        35         -0.99650888        0.002954
        36         -0.99650925        0.002220
        37         -0.99650982        0.002042
        38         -0.99650990        0.001825
        39         -0.99650992        0.001412
        40         -0.99650995        0.001376
        41         -0.99651002        0.001230
        42         -0.99651010        0.001230
        43         -0.99651012        0.001068
        44         -0.99651014        0.000697
        45         -0.99651015        0.000539
        46         -0.99651016        0.000539
        47         -0.99651018        0.000526
        48         -0.99651020        0.000526
        49         -0.99651021        0.000514
        50         -0.99651021        0.000422
        51         -0.99651022        0.000400
        52         -0.99651022        0.000379
        53         -0.99651022        0.000320
        54         -0.99651023        0.000320
        55         -0.99651023        0.000286
        56         -0.99651023        0.000286
        57         -0.99651023        0.000157
        58         -0.99651023        0.000157
        59         -0.99651023        0.000157
        60         -0.99651023        0.000157
        61         -0.99651023        0.000157
        62         -0.99651023        0.000097
        63         -0.99651024        0.000095
        64         -0.99651024        0.000093
        65         -0.99651024        0.000072
        66         -0.99651024        0.000068
        67         -0.99651024        0.000066
        68         -0.99651024        0.000056
        69         -0.99651024        0.000056
        70         -0.99651024        0.000055
        71         -0.99651024        0.000049
        72         -0.99651024        0.000039
        73         -0.99651024        0.000035
        74         -0.99651024        0.000035
        75         -0.99651024        0.000018
        76         -0.99651024        0.000018
        77         -0.99651024        0.000015
        78         -0.99651024        0.000014
        79         -0.99651024        0.000008
        80         -0.99651024        0.000006
        81         -0.99651024        0.000005
        82         -0.99651024        0.000004
        83         -0.99651024        0.000004
        84         -0.99651024        0.000003
        85         -0.99651024        0.000003
        86         -0.99651024        0.000003
        87         -0.99651024        0.000003
        88         -0.99651024        0.000002
        89         -0.99651024        0.000002
        90         -0.99651024        0.000001
        91         -0.99651024        0.000001
        92         -0.99651024        0.000001
        93         -0.99651024        0.000001
        94         -0.99651024        0.000001
        95         -0.99651024        0.000001
        96         -0.99651024        0.000001
        97         -0.99651024        0.000001
        98         -0.99651024        0.000001
        99         -0.99651024        0.000001
       100         -0.99651024        0.000001
       101         -0.99651024        0.000001
       102         -0.99651024        0.000001

 Reached Convergence

 WFN1                     :
 --------------------------
 Total WFN1 energy  =          -0.9965102366
 1-Electron energy  =          -1.2348897704
 2-Electron energy  =           0.3743189415
 Correlation energy =          -0.2551475035
 DFT XC energy      =           0.0000000000
 Entropy energy     =           0.0000000000
 Nuclear energy     =           0.1192080959

 conventional Hartree-Fock:
 --------------------------
 Total SCF energy  =          -0.9369072358
 2-Electron energy =           0.4339219422

                WFN1 Final Natural orbital energies and occupations
                ---------------------------------------------------

              Alpha       Beta            Alpha       Beta  
            --------    --------        --------    --------
       1      0.0000      0.0000          0.5025      0.5025
       2      0.0000      0.0000          0.4975      0.4975
       3      0.0000      0.0000          0.0000      0.0000
       4      0.0000      0.0000          0.0000      0.0000

             WFN1 Final Correlation function energies and occupations
             --------------------------------------------------------

              Alpha       Beta            Alpha       Beta  
            --------    --------        --------    --------
       1      0.0000      0.0000          1.0000      1.0000
       2      0.0000      0.0000          0.0000      0.0000
       3      0.0000      0.0000          0.0000      0.0000
       4      0.0000      0.0000          0.0000      0.0000

                WFN1 Final alpha-alpha 2-matrix occupation numbers
                --------------------------------------------------


 global array: g_momo1[1:4,1:4],  handle: -990 

            1           2           3           4  
       ----------- ----------- ----------- -----------
   1       0.00000    -0.00000     0.00000    -0.00000
   2       0.00000    -0.00000     0.00000    -0.00000
   3       0.00000     0.00000     0.00000     0.00000
   4       0.00000     0.00000     0.00000    -0.00000

                 WFN1 Final beta-beta 2-matrix occupation numbers
                 ------------------------------------------------


 global array: g_momo2[1:4,1:4],  handle: -989 

            1           2           3           4  
       ----------- ----------- ----------- -----------
   1       0.00000    -0.00000     0.00000    -0.00000
   2       0.00000    -0.00000     0.00000    -0.00000
   3       0.00000     0.00000     0.00000     0.00000
   4       0.00000     0.00000     0.00000    -0.00000

                  WFN1 Final alpha Correlation Function Analysis
                  ----------------------------------------------


 global array: Ca[1:4,1:4],  handle: -976 

                     1                       2                       3                       4  
       ----------------------- ----------------------- ----------------------- -----------------------
   1       0.40649,    0.58077     0.39981,    0.57884    -0.02919,   -0.01647    -0.03809,   -0.00198
   2      -0.41980,   -0.56678     0.41729,    0.57079    -0.02985,   -0.01565    -0.03818,   -0.00083
   3      -0.00012,    0.00001    -0.03653,   -0.05930    -0.69859,   -0.24293    -0.63423,   -0.21416
   4      -0.00001,   -0.00011     0.01411,   -0.01105     0.52072,    0.42374    -0.57992,   -0.46116

                   WFN1 Final beta Correlation Function Analysis
                   ---------------------------------------------


 global array: Cb[1:4,1:4],  handle: -975 

                     1                       2                       3                       4  
       ----------------------- ----------------------- ----------------------- -----------------------
   1       0.40649,    0.58077     0.39981,    0.57884    -0.02919,   -0.01647    -0.03809,   -0.00198
   2      -0.41980,   -0.56678     0.41729,    0.57079    -0.02985,   -0.01565    -0.03818,   -0.00083
   3      -0.00012,    0.00001    -0.03653,   -0.05930    -0.69859,   -0.24293    -0.63423,   -0.21416
   4      -0.00001,   -0.00011     0.01411,   -0.01105     0.52072,    0.42374    -0.57992,   -0.46116

                     WFN1 Final Alpha Natural Orbital Analysis
                     -----------------------------------------

 Vector    1  Occ=5.025225D-01  E= 0.000000D+00
              MO Center=  0.0D+00,  0.0D+00, -1.0D-06, r^2= 5.7D+00
   Bfn.  Coefficient  Atom+Function         Bfn.  Coefficient  Atom+Function  
  ----- ------------  ---------------      ----- ------------  ---------------
     2     -0.470171  1 H  s                  4     -0.470171  2 H  s          
     1     -0.302011  1 H  s                  3     -0.302011  2 H  s          

 Vector    2  Occ=4.974775D-01  E= 0.000000D+00
              MO Center=  0.0D+00,  0.0D+00,  1.0D-06, r^2= 5.7D+00
   Bfn.  Coefficient  Atom+Function         Bfn.  Coefficient  Atom+Function  
  ----- ------------  ---------------      ----- ------------  ---------------
     2      0.469328  1 H  s                  4     -0.469328  2 H  s          
     1      0.304201  1 H  s                  3     -0.304201  2 H  s          

 Vector    3  Occ=1.448325D-08  E= 0.000000D+00
              MO Center=  0.0D+00,  0.0D+00, -3.2D-02, r^2= 6.1D+00
   Bfn.  Coefficient  Atom+Function         Bfn.  Coefficient  Atom+Function  
  ----- ------------  ---------------      ----- ------------  ---------------
     1     -0.894649  1 H  s                  3     -0.881824  2 H  s          
     2      0.815892  1 H  s                  4      0.804119  2 H  s          

 Vector    4  Occ=1.290255D-08  E= 0.000000D+00
              MO Center=  0.0D+00,  0.0D+00,  3.2D-02, r^2= 6.2D+00
   Bfn.  Coefficient  Atom+Function         Bfn.  Coefficient  Atom+Function  
  ----- ------------  ---------------      ----- ------------  ---------------
     3      0.896336  2 H  s                  1     -0.883535  1 H  s          
     4     -0.822725  2 H  s                  2      0.811051  1 H  s          


                     WFN1 Final Beta Natural Orbital Analysis
                     ----------------------------------------

 Vector    1  Occ=5.025225D-01  E= 0.000000D+00
              MO Center=  0.0D+00,  0.0D+00, -1.0D-06, r^2= 5.7D+00
   Bfn.  Coefficient  Atom+Function         Bfn.  Coefficient  Atom+Function  
  ----- ------------  ---------------      ----- ------------  ---------------
     2     -0.470171  1 H  s                  4     -0.470171  2 H  s          
     1     -0.302011  1 H  s                  3     -0.302011  2 H  s          

 Vector    2  Occ=4.974775D-01  E= 0.000000D+00
              MO Center=  0.0D+00,  0.0D+00,  1.0D-06, r^2= 5.7D+00
   Bfn.  Coefficient  Atom+Function         Bfn.  Coefficient  Atom+Function  
  ----- ------------  ---------------      ----- ------------  ---------------
     2      0.469328  1 H  s                  4     -0.469328  2 H  s          
     1      0.304201  1 H  s                  3     -0.304201  2 H  s          

 Vector    3  Occ=1.448325D-08  E= 0.000000D+00
              MO Center=  0.0D+00,  0.0D+00, -3.2D-02, r^2= 6.1D+00
   Bfn.  Coefficient  Atom+Function         Bfn.  Coefficient  Atom+Function  
  ----- ------------  ---------------      ----- ------------  ---------------
     1     -0.894649  1 H  s                  3     -0.881824  2 H  s          
     2      0.815892  1 H  s                  4      0.804119  2 H  s          

 Vector    4  Occ=1.290255D-08  E= 0.000000D+00
              MO Center=  0.0D+00,  0.0D+00,  3.2D-02, r^2= 6.2D+00
   Bfn.  Coefficient  Atom+Function         Bfn.  Coefficient  Atom+Function  
  ----- ------------  ---------------      ----- ------------  ---------------
     3      0.896336  2 H  s                  1     -0.883535  1 H  s          
     4     -0.822725  2 H  s                  2      0.811051  1 H  s          


 Task  times  cpu:      182.9s     wall:      206.6s
 Summary of allocated global arrays
-----------------------------------
  No active global arrays



                         GA Statistics for process    0
                         ------------------------------

       create   destroy   get      put      acc     scatter   gather  read&inc
calls:   61       61     4.66e+07 2.06e+05 1.58e+05    0        0       11     
number of processes/call 1.00e+00 1.00e+00 1.00e+00 0.00e+00 0.00e+00
bytes total:             5.99e+09 3.75e+07 2.64e+07 0.00e+00 0.00e+00 8.80e+01
bytes remote:            0.00e+00 0.00e+00 0.00e+00 0.00e+00 0.00e+00 0.00e+00
Max memory consumed for GA by this process: 12160 bytes
MA_summarize_allocated_blocks: starting scan ...
MA_summarize_allocated_blocks: scan completed: 0 heap blocks, 0 stack blocks
MA usage statistics:

	allocation statistics:
					      heap	     stack
					      ----	     -----
	current number of blocks	         0	         0
	maximum number of blocks	        19	        17
	current total bytes		         0	         0
	maximum total bytes		   3204376	  22508632
	maximum total K-bytes		      3205	     22509
	maximum total M-bytes		         4	        23


                                NWChem Input Module
                                -------------------





                                     CITATION
                                     --------
                Please cite the following reference when publishing
                           results obtained with NWChem:

                 M. Valiev, E.J. Bylaska, N. Govind, K. Kowalski,
              T.P. Straatsma, H.J.J. van Dam, D. Wang, J. Nieplocha,
                        E. Apra, T.L. Windus, W.A. de Jong
                 "NWChem: a comprehensive and scalable open-source
                  solution for large scale molecular simulations"
                      Comput. Phys. Commun. 181, 1477 (2010)
                           doi:10.1016/j.cpc.2010.04.018

                                      AUTHORS
                                      -------
          E. Apra, E. J. Bylaska, W. A. de Jong, N. Govind, K. Kowalski,
       T. P. Straatsma, M. Valiev, H. J. J. van Dam, D. Wang, T. L. Windus,
        J. Hammond, J. Autschbach, K. Bhaskaran-Nair, J. Brabec, K. Lopata,
    S. A. Fischer, S. Krishnamoorthy, M. Jacquelin, W. Ma, M. Klemm, O. Villa,
      Y. Chen, V. Anisimov, F. Aquino, S. Hirata, M. T. Hackler, V. Konjkov,
      T. Risthaus, M. Malagoli, A. Marenich, A. Otero-de-la-Roza, J. Mullin,
        P. Nichols, R. Peverati, J. Pittner, Y. Zhao, P.-D. Fan, A. Fonari,
       M. Williamson, R. J. Harrison, J. R. Rehr, M. Dupuis, D. Silverstein,
    D. M. A. Smith, J. Nieplocha, V. Tipparaju, M. Krishnan, B. E. Van Kuiken,
        A. Vazquez-Mayagoitia, L. Jensen, M. Swart, Q. Wu, T. Van Voorhis,
     A. A. Auer, M. Nooijen, L. D. Crosby, E. Brown, G. Cisneros, G. I. Fann,
   H. Fruchtl, J. Garza, K. Hirao, R. A. Kendall, J. A. Nichols, K. Tsemekhman,
    K. Wolinski, J. Anchell, D. E. Bernholdt, P. Borowski, T. Clark, D. Clerc,
   H. Dachsel, M. J. O. Deegan, K. Dyall, D. Elwood, E. Glendening, M. Gutowski,
   A. C. Hess, J. Jaffe, B. G. Johnson, J. Ju, R. Kobayashi, R. Kutteh, Z. Lin,
   R. Littlefield, X. Long, B. Meng, T. Nakajima, S. Niu, L. Pollack, M. Rosing,
   K. Glaesemann, G. Sandrone, M. Stave, H. Taylor, G. Thomas, J. H. van Lenthe,
                               A. T. Wong, Z. Zhang.

 Total times  cpu:      182.9s     wall:      206.6s
        0.502522        0.497478        0.000000        0.000000        0.502522        0.497478        0.000000        0.000000