 argument  1 = /home/hvandam/nwchem-1-wfn1/QA/tests/wfn1-h2-6-31g-wfn1c14e/input-wf-6-31g-1.138692.nw



============================== echo of input deck ==============================
echo
start wfn1_dat
geometry units au noautoz
  H 0 0 -.56934600000000000000
  H 0 0  .56934600000000000000
  symmetry cs
end
basis
  H library 6-31g
end
set wfn1:input_vectors "atomic"
set wfn1:solver "monte-carlo"
set wfn1:print_error F
set wfn1:t_initial 0.1
#set wfn1:corr_expr "wfn1_mx"
set wfn1:corr_expr "wfn1c14"
#
set wfn1:fcd00  0.198826
set wfn1:fcd01  0.294438
set wfn1:fcd11  0.247007
set wfn1:fcd05  0.020225
set wfn1:fcd51  -0.098842
set wfn1:fcd55  -0.201236
#
set wfn1:rcd00  0.884548
set wfn1:rcd01  1.211432
set wfn1:rcd11  0.255064
set wfn1:rcd05  0.988291
set wfn1:rcd51  0.535281
set wfn1:rcd55  0.701049
#
set wfn1:fco00  -0.005884
set wfn1:fco01  0.063203
set wfn1:fco11  0.357171
set wfn1:fco05  0.019518
set wfn1:fco51  0.871725
set wfn1:fco55  1.051801
#
set wfn1:rco00  1.033050
set wfn1:rco01  0.850461
set wfn1:rco11  0.110139
set wfn1:rco05  0.985630
set wfn1:rco51  0.139729
set wfn1:rco55  0.918333
#
set wfn1:t_bath 0.0
set wfn1:maxit  20000
task wfn1 energy
================================================================================


                                         
                                         


              Northwest Computational Chemistry Package (NWChem) 6.8
              ------------------------------------------------------


                    Environmental Molecular Sciences Laboratory
                       Pacific Northwest National Laboratory
                                Richland, WA 99352

                              Copyright (c) 1994-2015
                       Pacific Northwest National Laboratory
                            Battelle Memorial Institute

             NWChem is an open-source computational chemistry package
                        distributed under the terms of the
                      Educational Community License (ECL) 2.0
             A copy of the license is included with this distribution
                              in the LICENSE.TXT file

                                  ACKNOWLEDGMENT
                                  --------------

            This software and its documentation were developed at the
            EMSL at Pacific Northwest National Laboratory, a multiprogram
            national laboratory, operated for the U.S. Department of Energy
            by Battelle under Contract Number DE-AC05-76RL01830. Support
            for this work was provided by the Department of Energy Office
            of Biological and Environmental Research, Office of Basic
            Energy Sciences, and the Office of Advanced Scientific Computing.


           Job information
           ---------------

    hostname        = node023
    program         = /home/hvandam/nwchem-1-wfn1/bin/LINUX64/nwchem
    date            = Thu Jun 17 23:47:25 2021

    compiled        = Sun_Jun_13_23:38:55_2021
    source          = /home/hvandam/nwchem-1-wfn1
    nwchem branch   = Development
    nwchem revision = nwchem_on_git-124-gad72d19fff205e319ffbbf2bca37a04ded6ad57b
    ga revision     = nwchem_on_git-124-gad72d19
    use scalapack   = F
    input           = /home/hvandam/nwchem-1-wfn1/QA/tests/wfn1-h2-6-31g-wfn1c14e/input-wf-6-31g-1.138692.nw
    prefix          = wfn1_dat.
    data base       = ./wfn1_dat.db
    status          = startup
    nproc           =        1
    time left       =     -1s



           Memory information
           ------------------

    heap     =   13107200 doubles =    100.0 Mbytes
    stack    =   13107197 doubles =    100.0 Mbytes
    global   =   26214400 doubles =    200.0 Mbytes (distinct from heap & stack)
    total    =   52428797 doubles =    400.0 Mbytes
    verify   = yes
    hardfail = no 


           Directory information
           ---------------------

  0 permanent = .
  0 scratch   = .




                                NWChem Input Module
                                -------------------


 Turning off AUTOSYM since
 SYMMETRY directive was detected!



                             Geometry "geometry" -> ""
                             -------------------------

 Output coordinates in a.u. (scale by  1.000000000 to convert to a.u.)

  No.       Tag          Charge          X              Y              Z
 ---- ---------------- ---------- -------------- -------------- --------------
    1 H                    1.0000     0.00000000     0.00000000    -0.56934600
    2 H                    1.0000     0.00000000     0.00000000     0.56934600

      Atomic Mass 
      ----------- 

      H                  1.007825


 Effective nuclear repulsion energy (a.u.)       0.8782006021

            Nuclear Dipole moment (a.u.) 
            ----------------------------
        X                 Y               Z
 ---------------- ---------------- ----------------
     0.0000000000     0.0000000000     0.0000000000

      Symmetry information
      --------------------

 Group name             Cs        
 Group number              2
 Group order               2
 No. of unique centers     1

      Symmetry unique atoms

     1


            XYZ format geometry
            -------------------
     2
 geometry
 H                     0.00000000     0.00000000    -0.30128495
 H                     0.00000000     0.00000000     0.30128495

 ==============================================================================
                                internuclear distances
 ------------------------------------------------------------------------------
       center one      |      center two      | atomic units |       a.u.
 ------------------------------------------------------------------------------
    2 H                |   1 H                |     1.13869  |     1.13869
 ------------------------------------------------------------------------------
                         number of included internuclear distances:          1
 ==============================================================================



                      Basis "ao basis" -> "" (cartesian)
                      -----
  H (Hydrogen)
  ------------
            Exponent  Coefficients 
       -------------- ---------------------------------------------------------
  1 S  1.87311370E+01  0.033495
  1 S  2.82539370E+00  0.234727
  1 S  6.40121700E-01  0.813757

  2 S  1.61277800E-01  1.000000



 Summary of "ao basis" -> "" (cartesian)
 ------------------------------------------------------------------------------
       Tag                 Description            Shells   Functions and Types
 ---------------- ------------------------------  ------  ---------------------
 H                           6-31g                   2        2   2s



                                NWChem WFN1 Module
                                ------------------



          No. of electrons :     2
           Alpha electrons :     1
            Beta electrons :     1
          Charge           :     0
          Spin multiplicity:     1

 HvD: wfn1_inpdft
 HvD: nquad_task =                     1
 HvD: iangquad   =                     0
 HvD: gridtype   = user      
 HvD: leb        =  T
 HvD: radgrid    = murakn    
 HvD: trunc_neigh=  T
 HvD: lssw       =  T
 HvD: whichssw   = erf1    
 HvD: mxnrad     =                     0
 HvD: mxnang     =                     0
 HVD: wfn1: movecs_in  = atomic                                                                                                                                                                                                                                                          
 HVD: wfn1: movecs_out = ./wfn1_dat.movecs                                                                                                                                                                                                                                               

      Superposition of Atomic Density Guess
      -------------------------------------

 Sum of atomic energies:          -0.99646508

      Non-variational initial energy
      ------------------------------

 Total energy =      -0.836316
 1-e energy   =      -2.370161
 2-e energy   =       0.655645
 HOMO         =      -0.656942
 LUMO         =       0.212074

 iteration              energy           error
 ---------              ------           -----
         0         -1.11316124        0.020000
         1         -1.11641759        0.020000
         2         -1.11764582        0.020000
         3         -1.12013793        0.020000
         4         -1.12086517        0.020000
         5         -1.12125271        0.020000
         6         -1.12220659        0.020000
         7         -1.12459376        0.020000
         8         -1.12539935        0.020000
         9         -1.12570785        0.020000
        10         -1.12571948        0.020000
        11         -1.12607799        0.020000
        12         -1.12763222        0.020000
        13         -1.12951488        0.020000
        14         -1.12959386        0.020000
        15         -1.13149344        0.020000
        16         -1.13170877        0.020000
        17         -1.13189037        0.020000
        18         -1.13189590        0.020000
        19         -1.13190275        0.020000
        20         -1.13245726        0.020000
        21         -1.13283480        0.020000
        22         -1.13301340        0.020000
        23         -1.13303039        0.020000
        24         -1.13325132        0.020000
        25         -1.13419274        0.020000
        26         -1.13428300        0.020000
        27         -1.13446919        0.020000
        28         -1.13472092        0.020000
        29         -1.13525253        0.020000
        30         -1.13551373        0.020000
        31         -1.13569923        0.020000
        32         -1.13602817        0.020000
        33         -1.13609188        0.020000
        34         -1.13611874        0.020000
        35         -1.13631779        0.020000
        36         -1.13633805        0.020000
        37         -1.13644594        0.019429
        38         -1.13647143        0.018937
        39         -1.13647705        0.018457
        40         -1.13649074        0.018457
        41         -1.13652090        0.015127
        42         -1.13652888        0.014370
        43         -1.13654174        0.013607
        44         -1.13655646        0.013262
        45         -1.13655872        0.012926
        46         -1.13656118        0.010904
        47         -1.13656131        0.009746
        48         -1.13657829        0.009498
        49         -1.13660617        0.009498
        50         -1.13660773        0.008994
        51         -1.13660973        0.008994
        52         -1.13661222        0.008994
        53         -1.13661770        0.008994
        54         -1.13662048        0.006401
        55         -1.13662094        0.005612
        56         -1.13662389        0.004734
        57         -1.13662702        0.004355
        58         -1.13662840        0.004355
        59         -1.13662872        0.004245
        60         -1.13662912        0.004032
        61         -1.13663068        0.004032
        62         -1.13663217        0.004032
        63         -1.13663405        0.003119
        64         -1.13663550        0.002888
        65         -1.13663611        0.002888
        66         -1.13663647        0.002888
        67         -1.13663712        0.002735
        68         -1.13663723        0.002735
        69         -1.13663890        0.002735
        70         -1.13663999        0.002735
        71         -1.13664209        0.002735
        72         -1.13664237        0.002606
        73         -1.13664279        0.001363
        74         -1.13664309        0.001328
        75         -1.13664311        0.000942
        76         -1.13664316        0.000942
        77         -1.13664318        0.000942
        78         -1.13664318        0.000942
        79         -1.13664324        0.000942
        80         -1.13664336        0.000942
        81         -1.13664350        0.000942
        82         -1.13664361        0.000942
        83         -1.13664364        0.000942
        84         -1.13664380        0.000942
        85         -1.13664388        0.000942
        86         -1.13664392        0.000942
        87         -1.13664405        0.000942
        88         -1.13664408        0.000942
        89         -1.13664438        0.000942
        90         -1.13664440        0.000446
        91         -1.13664441        0.000446
        92         -1.13664443        0.000446
        93         -1.13664443        0.000442
        94         -1.13664443        0.000354
        95         -1.13664444        0.000354
        96         -1.13664444        0.000290
        97         -1.13664445        0.000290
        98         -1.13664445        0.000260
        99         -1.13664446        0.000254
       100         -1.13664446        0.000248
       101         -1.13664447        0.000248
       102         -1.13664448        0.000152
       103         -1.13664448        0.000145
       104         -1.13664448        0.000141
       105         -1.13664448        0.000137
       106         -1.13664448        0.000137
       107         -1.13664448        0.000137
       108         -1.13664449        0.000137
       109         -1.13664449        0.000134
       110         -1.13664449        0.000105
       111         -1.13664449        0.000099
       112         -1.13664449        0.000099
       113         -1.13664449        0.000094
       114         -1.13664449        0.000094
       115         -1.13664449        0.000094
       116         -1.13664449        0.000094
       117         -1.13664449        0.000094
       118         -1.13664449        0.000067
       119         -1.13664449        0.000067
       120         -1.13664449        0.000066
       121         -1.13664449        0.000063
       122         -1.13664449        0.000063
       123         -1.13664450        0.000063
       124         -1.13664450        0.000040
       125         -1.13664450        0.000040
       126         -1.13664450        0.000040
       127         -1.13664450        0.000040
       128         -1.13664450        0.000040
       129         -1.13664450        0.000040
       130         -1.13664450        0.000040
       131         -1.13664450        0.000039
       132         -1.13664450        0.000039
       133         -1.13664450        0.000024
       134         -1.13664450        0.000023
       135         -1.13664450        0.000021
       136         -1.13664450        0.000021
       137         -1.13664450        0.000014
       138         -1.13664450        0.000014
       139         -1.13664450        0.000013
       140         -1.13664450        0.000013
       141         -1.13664450        0.000012
       142         -1.13664450        0.000012
       143         -1.13664450        0.000012
       144         -1.13664450        0.000012
       145         -1.13664450        0.000012
       146         -1.13664450        0.000012
       147         -1.13664450        0.000012
       148         -1.13664450        0.000012
       149         -1.13664450        0.000012
       150         -1.13664450        0.000012
       151         -1.13664450        0.000012
       152         -1.13664450        0.000012
       153         -1.13664450        0.000012
       154         -1.13664450        0.000012
       155         -1.13664450        0.000012
       156         -1.13664450        0.000012
       157         -1.13664450        0.000012
       158         -1.13664450        0.000012
       159         -1.13664450        0.000012
       160         -1.13664450        0.000012
       161         -1.13664450        0.000012
       162         -1.13664450        0.000012
       163         -1.13664450        0.000012
       164         -1.13664450        0.000012
       165         -1.13664450        0.000012
       166         -1.13664450        0.000012
       167         -1.13664450        0.000012
       168         -1.13664450        0.000012
       169         -1.13664450        0.000012
       170         -1.13664450        0.000012
       171         -1.13664450        0.000012
       172         -1.13664450        0.000012
       173         -1.13664450        0.000012
       174         -1.13664450        0.000012
       175         -1.13664450        0.000012
       176         -1.13664450        0.000012
       177         -1.13664450        0.000012
       178         -1.13664450        0.000012
       179         -1.13664450        0.000012
       180         -1.13664450        0.000012
       181         -1.13664450        0.000012
       182         -1.13664450        0.000012
       183         -1.13664450        0.000012
       184         -1.13664450        0.000012
       185         -1.13664450        0.000012
       186         -1.13664450        0.000009
       187         -1.13664450        0.000008
       188         -1.13664450        0.000008
       189         -1.13664450        0.000008
       190         -1.13664450        0.000008
       191         -1.13664450        0.000008
       192         -1.13664450        0.000008
       193         -1.13664450        0.000008
       194         -1.13664450        0.000008
       195         -1.13664450        0.000008
       196         -1.13664450        0.000008
       197         -1.13664450        0.000005
       198         -1.13664450        0.000005
       199         -1.13664450        0.000005
       200         -1.13664450        0.000005
       201         -1.13664450        0.000005
       202         -1.13664450        0.000005
       203         -1.13664450        0.000005
       204         -1.13664450        0.000005
       205         -1.13664450        0.000004
       206         -1.13664450        0.000003
       207         -1.13664450        0.000002
       208         -1.13664450        0.000002
       209         -1.13664450        0.000002
       210         -1.13664450        0.000002
       211         -1.13664450        0.000002
       212         -1.13664450        0.000002
       213         -1.13664450        0.000002
       214         -1.13664450        0.000002
       215         -1.13664450        0.000002
       216         -1.13664450        0.000002
       217         -1.13664450        0.000002
       218         -1.13664450        0.000002
       219         -1.13664450        0.000002
       220         -1.13664450        0.000002
       221         -1.13664450        0.000002
       222         -1.13664450        0.000002
       223         -1.13664450        0.000002
       224         -1.13664450        0.000002
       225         -1.13664450        0.000001
       226         -1.13664450        0.000001
       227         -1.13664450        0.000001
       228         -1.13664450        0.000001
       229         -1.13664450        0.000001
       230         -1.13664450        0.000001
       231         -1.13664450        0.000001
       232         -1.13664450        0.000001
       233         -1.13664450        0.000001
       234         -1.13664450        0.000001
       235         -1.13664450        0.000001
       236         -1.13664450        0.000001
       237         -1.13664450        0.000001
       238         -1.13664450        0.000001
       239         -1.13664450        0.000001
       240         -1.13664450        0.000001
       241         -1.13664450        0.000001
       242         -1.13664450        0.000001
       243         -1.13664450        0.000001
       244         -1.13664450        0.000001
       245         -1.13664450        0.000001
       246         -1.13664450        0.000001
       247         -1.13664450        0.000001
       248         -1.13664450        0.000001
       249         -1.13664450        0.000001

 Reached Convergence

 WFN1                     :
 --------------------------
 Total WFN1 energy  =          -1.1366444977
 1-Electron energy  =          -2.6687866762
 2-Electron energy  =           0.7050966795
 Correlation energy =          -0.0511551031
 DFT XC energy      =           0.0000000000
 Entropy energy     =           0.0000000000
 Nuclear energy     =           0.8782006021

 conventional Hartree-Fock:
 --------------------------
 Total SCF energy  =          -1.1195955708
 2-Electron energy =           0.7221456064

                WFN1 Final Natural orbital energies and occupations
                ---------------------------------------------------

              Alpha       Beta            Alpha       Beta  
            --------    --------        --------    --------
       1      0.0000      0.0000          0.9775      0.9775
       2      0.0000      0.0000          0.0225      0.0225
       3      0.0000      0.0000          0.0000      0.0000
       4      0.0000      0.0000          0.0000      0.0000

             WFN1 Final Correlation function energies and occupations
             --------------------------------------------------------

              Alpha       Beta            Alpha       Beta  
            --------    --------        --------    --------
       1      0.0000      0.0000          1.0000      1.0000
       2      0.0000      0.0000          0.0000      0.0000
       3      0.0000      0.0000          0.0000      0.0000
       4      0.0000      0.0000          0.0000      0.0000

                WFN1 Final alpha-alpha 2-matrix occupation numbers
                --------------------------------------------------


 global array: g_momo1[1:4,1:4],  handle: -990 

            1           2           3           4  
       ----------- ----------- ----------- -----------
   1      -0.00000    -0.00000     0.00000     0.00000
   2       0.00000     0.00000     0.00000    -0.00000
   3       0.00000     0.00000     0.00000     0.00000
   4       0.00000     0.00000     0.00000     0.00000

                 WFN1 Final beta-beta 2-matrix occupation numbers
                 ------------------------------------------------


 global array: g_momo2[1:4,1:4],  handle: -989 

            1           2           3           4  
       ----------- ----------- ----------- -----------
   1      -0.00000    -0.00000     0.00000     0.00000
   2       0.00000     0.00000     0.00000    -0.00000
   3       0.00000     0.00000     0.00000     0.00000
   4       0.00000     0.00000     0.00000     0.00000

                  WFN1 Final alpha Correlation Function Analysis
                  ----------------------------------------------


 global array: Ca[1:4,1:4],  handle: -972 

                     1                       2                       3                       4  
       ----------------------- ----------------------- ----------------------- -----------------------
   1      -0.98470,    0.08850     0.13598,   -0.06159    -0.01541,    0.00028     0.00179,   -0.00380
   2      -0.02776,    0.14754     0.14661,    0.97206     0.02582,   -0.09820     0.02085,    0.01815
   3      -0.00001,   -0.00000    -0.09371,    0.04359    -0.98917,    0.05080     0.09104,   -0.00017
   4       0.00000,    0.00000     0.01197,    0.02247    -0.09177,   -0.00113    -0.99491,   -0.03280

                   WFN1 Final beta Correlation Function Analysis
                   ---------------------------------------------


 global array: Cb[1:4,1:4],  handle: -971 

                     1                       2                       3                       4  
       ----------------------- ----------------------- ----------------------- -----------------------
   1      -0.98470,    0.08850     0.13598,   -0.06159    -0.01541,    0.00028     0.00179,   -0.00380
   2      -0.02776,    0.14754     0.14661,    0.97206     0.02582,   -0.09820     0.02085,    0.01815
   3      -0.00001,   -0.00000    -0.09371,    0.04359    -0.98917,    0.05080     0.09104,   -0.00017
   4       0.00000,    0.00000     0.01197,    0.02247    -0.09177,   -0.00113    -0.99491,   -0.03280

                     WFN1 Final Alpha Natural Orbital Analysis
                     -----------------------------------------

 Vector    1  Occ=9.774617D-01  E= 0.000000D+00
              MO Center=  0.0D+00,  0.0D+00,  7.1D-08, r^2= 6.1D-01
   Bfn.  Coefficient  Atom+Function         Bfn.  Coefficient  Atom+Function  
  ----- ------------  ---------------      ----- ------------  ---------------
     1      0.358725  1 H  s                  3      0.358725  2 H  s          
     2      0.227316  1 H  s                  4      0.227316  2 H  s          

 Vector    2  Occ=2.253834D-02  E= 0.000000D+00
              MO Center=  0.0D+00,  0.0D+00, -5.8D-06, r^2= 1.8D+00
   Bfn.  Coefficient  Atom+Function         Bfn.  Coefficient  Atom+Function  
  ----- ------------  ---------------      ----- ------------  ---------------
     2      1.921575  1 H  s                  4     -1.921568  2 H  s          
     1      0.263631  1 H  s                  3     -0.263638  2 H  s          

 Vector    3  Occ=5.516126D-11  E= 0.000000D+00
              MO Center=  0.0D+00,  0.0D+00, -1.8D-02, r^2= 1.6D+00
   Bfn.  Coefficient  Atom+Function         Bfn.  Coefficient  Atom+Function  
  ----- ------------  ---------------      ----- ------------  ---------------
     1      0.721195  1 H  s                  2     -0.711700  1 H  s          
     3      0.676761  2 H  s                  4     -0.648974  2 H  s          

 Vector    4  Occ=2.146203D-14  E= 0.000000D+00
              MO Center=  0.0D+00,  0.0D+00,  1.8D-02, r^2= 1.1D+00
   Bfn.  Coefficient  Atom+Function         Bfn.  Coefficient  Atom+Function  
  ----- ------------  ---------------      ----- ------------  ---------------
     4      1.771352  2 H  s                  2     -1.747087  1 H  s          
     3     -1.258176  2 H  s                  1      1.233245  1 H  s          


                     WFN1 Final Beta Natural Orbital Analysis
                     ----------------------------------------

 Vector    1  Occ=9.774617D-01  E= 0.000000D+00
              MO Center=  0.0D+00,  0.0D+00,  7.1D-08, r^2= 6.1D-01
   Bfn.  Coefficient  Atom+Function         Bfn.  Coefficient  Atom+Function  
  ----- ------------  ---------------      ----- ------------  ---------------
     1      0.358725  1 H  s                  3      0.358725  2 H  s          
     2      0.227316  1 H  s                  4      0.227316  2 H  s          

 Vector    2  Occ=2.253834D-02  E= 0.000000D+00
              MO Center=  0.0D+00,  0.0D+00, -5.8D-06, r^2= 1.8D+00
   Bfn.  Coefficient  Atom+Function         Bfn.  Coefficient  Atom+Function  
  ----- ------------  ---------------      ----- ------------  ---------------
     2      1.921575  1 H  s                  4     -1.921568  2 H  s          
     1      0.263631  1 H  s                  3     -0.263638  2 H  s          

 Vector    3  Occ=5.516126D-11  E= 0.000000D+00
              MO Center=  0.0D+00,  0.0D+00, -1.8D-02, r^2= 1.6D+00
   Bfn.  Coefficient  Atom+Function         Bfn.  Coefficient  Atom+Function  
  ----- ------------  ---------------      ----- ------------  ---------------
     1      0.721195  1 H  s                  2     -0.711700  1 H  s          
     3      0.676761  2 H  s                  4     -0.648974  2 H  s          

 Vector    4  Occ=2.146203D-14  E= 0.000000D+00
              MO Center=  0.0D+00,  0.0D+00,  1.8D-02, r^2= 1.1D+00
   Bfn.  Coefficient  Atom+Function         Bfn.  Coefficient  Atom+Function  
  ----- ------------  ---------------      ----- ------------  ---------------
     4      1.771352  2 H  s                  2     -1.747087  1 H  s          
     3     -1.258176  2 H  s                  1      1.233245  1 H  s          


 Task  times  cpu:      213.5s     wall:      239.9s
 Summary of allocated global arrays
-----------------------------------
  No active global arrays



                         GA Statistics for process    0
                         ------------------------------

       create   destroy   get      put      acc     scatter   gather  read&inc
calls:   61       61     5.28e+07 2.33e+05 1.80e+05    0        0       11     
number of processes/call 1.00e+00 1.00e+00 1.00e+00 0.00e+00 0.00e+00
bytes total:             6.79e+09 4.24e+07 2.99e+07 0.00e+00 0.00e+00 8.80e+01
bytes remote:            0.00e+00 0.00e+00 0.00e+00 0.00e+00 0.00e+00 0.00e+00
Max memory consumed for GA by this process: 12160 bytes
MA_summarize_allocated_blocks: starting scan ...
MA_summarize_allocated_blocks: scan completed: 0 heap blocks, 0 stack blocks
MA usage statistics:

	allocation statistics:
					      heap	     stack
					      ----	     -----
	current number of blocks	         0	         0
	maximum number of blocks	        19	        17
	current total bytes		         0	         0
	maximum total bytes		   3204328	  22508616
	maximum total K-bytes		      3205	     22509
	maximum total M-bytes		         4	        23


                                NWChem Input Module
                                -------------------





                                     CITATION
                                     --------
                Please cite the following reference when publishing
                           results obtained with NWChem:

                 M. Valiev, E.J. Bylaska, N. Govind, K. Kowalski,
              T.P. Straatsma, H.J.J. van Dam, D. Wang, J. Nieplocha,
                        E. Apra, T.L. Windus, W.A. de Jong
                 "NWChem: a comprehensive and scalable open-source
                  solution for large scale molecular simulations"
                      Comput. Phys. Commun. 181, 1477 (2010)
                           doi:10.1016/j.cpc.2010.04.018

                                      AUTHORS
                                      -------
          E. Apra, E. J. Bylaska, W. A. de Jong, N. Govind, K. Kowalski,
       T. P. Straatsma, M. Valiev, H. J. J. van Dam, D. Wang, T. L. Windus,
        J. Hammond, J. Autschbach, K. Bhaskaran-Nair, J. Brabec, K. Lopata,
    S. A. Fischer, S. Krishnamoorthy, M. Jacquelin, W. Ma, M. Klemm, O. Villa,
      Y. Chen, V. Anisimov, F. Aquino, S. Hirata, M. T. Hackler, V. Konjkov,
      T. Risthaus, M. Malagoli, A. Marenich, A. Otero-de-la-Roza, J. Mullin,
        P. Nichols, R. Peverati, J. Pittner, Y. Zhao, P.-D. Fan, A. Fonari,
       M. Williamson, R. J. Harrison, J. R. Rehr, M. Dupuis, D. Silverstein,
    D. M. A. Smith, J. Nieplocha, V. Tipparaju, M. Krishnan, B. E. Van Kuiken,
        A. Vazquez-Mayagoitia, L. Jensen, M. Swart, Q. Wu, T. Van Voorhis,
     A. A. Auer, M. Nooijen, L. D. Crosby, E. Brown, G. Cisneros, G. I. Fann,
   H. Fruchtl, J. Garza, K. Hirao, R. A. Kendall, J. A. Nichols, K. Tsemekhman,
    K. Wolinski, J. Anchell, D. E. Bernholdt, P. Borowski, T. Clark, D. Clerc,
   H. Dachsel, M. J. O. Deegan, K. Dyall, D. Elwood, E. Glendening, M. Gutowski,
   A. C. Hess, J. Jaffe, B. G. Johnson, J. Ju, R. Kobayashi, R. Kutteh, Z. Lin,
   R. Littlefield, X. Long, B. Meng, T. Nakajima, S. Niu, L. Pollack, M. Rosing,
   K. Glaesemann, G. Sandrone, M. Stave, H. Taylor, G. Thomas, J. H. van Lenthe,
                               A. T. Wong, Z. Zhang.

 Total times  cpu:      213.5s     wall:      240.0s
        0.977462        0.022538        0.000000        0.000000        0.977462        0.022538        0.000000        0.000000