 argument  1 = /home/hvandam/nwchem-1-wfn1/QA/tests/wfn1-h2-6-31g-wfn1c14e/input-wf-6-31g-3.638692.nw



============================== echo of input deck ==============================
echo
start wfn1_dat
geometry units au noautoz
  H 0 0 -1.81934600000000000000
  H 0 0  1.81934600000000000000
  symmetry cs
end
basis
  H library 6-31g
end
set wfn1:input_vectors "atomic"
set wfn1:solver "monte-carlo"
set wfn1:print_error F
set wfn1:t_initial 0.1
#set wfn1:corr_expr "wfn1_mx"
set wfn1:corr_expr "wfn1c14"
#
set wfn1:fcd00  0.198826
set wfn1:fcd01  0.294438
set wfn1:fcd11  0.247007
set wfn1:fcd05  0.020225
set wfn1:fcd51  -0.098842
set wfn1:fcd55  -0.201236
#
set wfn1:rcd00  0.884548
set wfn1:rcd01  1.211432
set wfn1:rcd11  0.255064
set wfn1:rcd05  0.988291
set wfn1:rcd51  0.535281
set wfn1:rcd55  0.701049
#
set wfn1:fco00  -0.005884
set wfn1:fco01  0.063203
set wfn1:fco11  0.357171
set wfn1:fco05  0.019518
set wfn1:fco51  0.871725
set wfn1:fco55  1.051801
#
set wfn1:rco00  1.033050
set wfn1:rco01  0.850461
set wfn1:rco11  0.110139
set wfn1:rco05  0.985630
set wfn1:rco51  0.139729
set wfn1:rco55  0.918333
#
set wfn1:t_bath 0.0
set wfn1:maxit  20000
task wfn1 energy
================================================================================


                                         
                                         


              Northwest Computational Chemistry Package (NWChem) 6.8
              ------------------------------------------------------


                    Environmental Molecular Sciences Laboratory
                       Pacific Northwest National Laboratory
                                Richland, WA 99352

                              Copyright (c) 1994-2015
                       Pacific Northwest National Laboratory
                            Battelle Memorial Institute

             NWChem is an open-source computational chemistry package
                        distributed under the terms of the
                      Educational Community License (ECL) 2.0
             A copy of the license is included with this distribution
                              in the LICENSE.TXT file

                                  ACKNOWLEDGMENT
                                  --------------

            This software and its documentation were developed at the
            EMSL at Pacific Northwest National Laboratory, a multiprogram
            national laboratory, operated for the U.S. Department of Energy
            by Battelle under Contract Number DE-AC05-76RL01830. Support
            for this work was provided by the Department of Energy Office
            of Biological and Environmental Research, Office of Basic
            Energy Sciences, and the Office of Advanced Scientific Computing.


           Job information
           ---------------

    hostname        = node023
    program         = /home/hvandam/nwchem-1-wfn1/bin/LINUX64/nwchem
    date            = Thu Jun 17 23:47:25 2021

    compiled        = Sun_Jun_13_23:38:55_2021
    source          = /home/hvandam/nwchem-1-wfn1
    nwchem branch   = Development
    nwchem revision = nwchem_on_git-124-gad72d19fff205e319ffbbf2bca37a04ded6ad57b
    ga revision     = nwchem_on_git-124-gad72d19
    use scalapack   = F
    input           = /home/hvandam/nwchem-1-wfn1/QA/tests/wfn1-h2-6-31g-wfn1c14e/input-wf-6-31g-3.638692.nw
    prefix          = wfn1_dat.
    data base       = ./wfn1_dat.db
    status          = startup
    nproc           =        1
    time left       =     -1s



           Memory information
           ------------------

    heap     =   13107198 doubles =    100.0 Mbytes
    stack    =   13107195 doubles =    100.0 Mbytes
    global   =   26214400 doubles =    200.0 Mbytes (distinct from heap & stack)
    total    =   52428793 doubles =    400.0 Mbytes
    verify   = yes
    hardfail = no 


           Directory information
           ---------------------

  0 permanent = .
  0 scratch   = .




                                NWChem Input Module
                                -------------------


 Turning off AUTOSYM since
 SYMMETRY directive was detected!



                             Geometry "geometry" -> ""
                             -------------------------

 Output coordinates in a.u. (scale by  1.000000000 to convert to a.u.)

  No.       Tag          Charge          X              Y              Z
 ---- ---------------- ---------- -------------- -------------- --------------
    1 H                    1.0000     0.00000000     0.00000000    -1.81934600
    2 H                    1.0000     0.00000000     0.00000000     1.81934600

      Atomic Mass 
      ----------- 

      H                  1.007825


 Effective nuclear repulsion energy (a.u.)       0.2748240302

            Nuclear Dipole moment (a.u.) 
            ----------------------------
        X                 Y               Z
 ---------------- ---------------- ----------------
     0.0000000000     0.0000000000     0.0000000000

      Symmetry information
      --------------------

 Group name             Cs        
 Group number              2
 Group order               2
 No. of unique centers     1

      Symmetry unique atoms

     1


            XYZ format geometry
            -------------------
     2
 geometry
 H                     0.00000000     0.00000000    -0.96275651
 H                     0.00000000     0.00000000     0.96275651

                      Basis "ao basis" -> "" (cartesian)
                      -----
  H (Hydrogen)
  ------------
            Exponent  Coefficients 
       -------------- ---------------------------------------------------------
  1 S  1.87311370E+01  0.033495
  1 S  2.82539370E+00  0.234727
  1 S  6.40121700E-01  0.813757

  2 S  1.61277800E-01  1.000000



 Summary of "ao basis" -> "" (cartesian)
 ------------------------------------------------------------------------------
       Tag                 Description            Shells   Functions and Types
 ---------------- ------------------------------  ------  ---------------------
 H                           6-31g                   2        2   2s



                                NWChem WFN1 Module
                                ------------------



          No. of electrons :     2
           Alpha electrons :     1
            Beta electrons :     1
          Charge           :     0
          Spin multiplicity:     1

 HvD: wfn1_inpdft
 HvD: nquad_task =                     1
 HvD: iangquad   =                     0
 HvD: gridtype   = user      
 HvD: leb        =  T
 HvD: radgrid    = murakn    
 HvD: trunc_neigh=  T
 HvD: lssw       =  T
 HvD: whichssw   = erf1    
 HvD: mxnrad     =                     0
 HvD: mxnang     =                     0
 HVD: wfn1: movecs_in  = atomic                                                                                                                                                                                                                                                          
 HVD: wfn1: movecs_out = ./wfn1_dat.movecs                                                                                                                                                                                                                                               

      Superposition of Atomic Density Guess
      -------------------------------------

 Sum of atomic energies:          -0.99646508

      Non-variational initial energy
      ------------------------------

 Total energy =      -0.696612
 1-e energy   =      -1.545268
 2-e energy   =       0.573832
 HOMO         =      -0.275441
 LUMO         =      -0.097056

 iteration              energy           error
 ---------              ------           -----
         0         -1.00677931        0.020000
         1         -1.00683661        0.020000
         2         -1.00700875        0.020000
         3         -1.00776330        0.020000
         4         -1.00785564        0.020000
         5         -1.00898624        0.020000
         6         -1.00991219        0.020000
         7         -1.01023309        0.020000
         8         -1.01115680        0.020000
         9         -1.01162162        0.020000
        10         -1.01232335        0.020000
        11         -1.01355355        0.020000
        12         -1.01370969        0.020000
        13         -1.01500132        0.020000
        14         -1.01549585        0.020000
        15         -1.01601306        0.020000
        16         -1.01658717        0.020000
        17         -1.01692311        0.020000
        18         -1.01722639        0.020000
        19         -1.01730925        0.020000
        20         -1.01821006        0.020000
        21         -1.01826578        0.020000
        22         -1.01835432        0.020000
        23         -1.01884359        0.020000
        24         -1.01886148        0.020000
        25         -1.01890702        0.020000
        26         -1.01899085        0.020000
        27         -1.01934170        0.020000
        28         -1.01937149        0.020000
        29         -1.02016868        0.020000
        30         -1.02023852        0.020000
        31         -1.02034726        0.020000
        32         -1.02060201        0.020000
        33         -1.02067778        0.020000
        34         -1.02087916        0.020000
        35         -1.02097053        0.020000
        36         -1.02112556        0.020000
        37         -1.02124969        0.020000
        38         -1.02132512        0.020000
        39         -1.02137700        0.019491
        40         -1.02139788        0.016496
        41         -1.02141787        0.016078
        42         -1.02142163        0.016078
        43         -1.02142478        0.011080
        44         -1.02142519        0.009652
        45         -1.02142746        0.009140
        46         -1.02143998        0.008169
        47         -1.02144045        0.007962
        48         -1.02144094        0.007324
        49         -1.02144191        0.007324
        50         -1.02144629        0.006179
        51         -1.02144779        0.006042
        52         -1.02144791        0.004811
        53         -1.02144827        0.004299
        54         -1.02144891        0.003955
        55         -1.02145083        0.003745
        56         -1.02145134        0.003546
        57         -1.02145207        0.002824
        58         -1.02145218        0.002184
        59         -1.02145296        0.002069
        60         -1.02145316        0.001959
        61         -1.02145320        0.001472
        62         -1.02145324        0.001472
        63         -1.02145339        0.001472
        64         -1.02145342        0.001139
        65         -1.02145346        0.000837
        66         -1.02145348        0.000770
        67         -1.02145348        0.000688
        68         -1.02145349        0.000671
        69         -1.02145349        0.000490
        70         -1.02145350        0.000490
        71         -1.02145350        0.000450
        72         -1.02145351        0.000450
        73         -1.02145351        0.000360
        74         -1.02145351        0.000342
        75         -1.02145352        0.000324
        76         -1.02145352        0.000281
        77         -1.02145352        0.000251
        78         -1.02145352        0.000178
        79         -1.02145352        0.000155
        80         -1.02145352        0.000127
        81         -1.02145352        0.000124
        82         -1.02145352        0.000124
        83         -1.02145352        0.000093
        84         -1.02145352        0.000093
        85         -1.02145352        0.000081
        86         -1.02145352        0.000038
        87         -1.02145352        0.000037
        88         -1.02145352        0.000034
        89         -1.02145352        0.000029
        90         -1.02145352        0.000027
        91         -1.02145352        0.000027
        92         -1.02145352        0.000026
        93         -1.02145352        0.000025
        94         -1.02145352        0.000018
        95         -1.02145352        0.000017
        96         -1.02145352        0.000017
        97         -1.02145352        0.000012
        98         -1.02145352        0.000010
        99         -1.02145352        0.000008
       100         -1.02145352        0.000007
       101         -1.02145352        0.000007
       102         -1.02145352        0.000006
       103         -1.02145352        0.000005
       104         -1.02145352        0.000005
       105         -1.02145352        0.000005
       106         -1.02145352        0.000005
       107         -1.02145352        0.000004
       108         -1.02145352        0.000003
       109         -1.02145352        0.000003
       110         -1.02145352        0.000003
       111         -1.02145352        0.000003
       112         -1.02145352        0.000002
       113         -1.02145352        0.000002
       114         -1.02145352        0.000002
       115         -1.02145352        0.000002
       116         -1.02145352        0.000001
       117         -1.02145352        0.000001
       118         -1.02145352        0.000001
       119         -1.02145352        0.000001
       120         -1.02145352        0.000001
       121         -1.02145352        0.000001
       122         -1.02145352        0.000001

 Reached Convergence

 WFN1                     :
 --------------------------
 Total WFN1 energy  =          -1.0214535247
 1-Electron energy  =          -1.5830133207
 2-Electron energy  =           0.4439963471
 Correlation energy =          -0.1572605813
 DFT XC energy      =           0.0000000000
 Entropy energy     =           0.0000000000
 Nuclear energy     =           0.2748240302

 conventional Hartree-Fock:
 --------------------------
 Total SCF energy  =          -0.9287280674
 2-Electron energy =           0.5367218045

                WFN1 Final Natural orbital energies and occupations
                ---------------------------------------------------

              Alpha       Beta            Alpha       Beta  
            --------    --------        --------    --------
       1      0.0000      0.0000          0.7694      0.7694
       2      0.0000      0.0000          0.2306      0.2306
       3      0.0000      0.0000          0.0000      0.0000
       4      0.0000      0.0000          0.0000      0.0000

             WFN1 Final Correlation function energies and occupations
             --------------------------------------------------------

              Alpha       Beta            Alpha       Beta  
            --------    --------        --------    --------
       1      0.0000      0.0000          1.0000      1.0000
       2      0.0000      0.0000          0.0000      0.0000
       3      0.0000      0.0000          0.0000      0.0000
       4      0.0000      0.0000          0.0000      0.0000

                WFN1 Final alpha-alpha 2-matrix occupation numbers
                --------------------------------------------------


 global array: g_momo1[1:4,1:4],  handle: -990 

            1           2           3           4  
       ----------- ----------- ----------- -----------
   1       0.00000     0.00000    -0.00000     0.00000
   2       0.00000    -0.00000    -0.00000     0.00000
   3       0.00000     0.00000    -0.00000     0.00000
   4       0.00000     0.00000    -0.00000     0.00000

                 WFN1 Final beta-beta 2-matrix occupation numbers
                 ------------------------------------------------


 global array: g_momo2[1:4,1:4],  handle: -989 

            1           2           3           4  
       ----------- ----------- ----------- -----------
   1       0.00000     0.00000    -0.00000     0.00000
   2       0.00000    -0.00000    -0.00000     0.00000
   3       0.00000     0.00000    -0.00000     0.00000
   4       0.00000     0.00000    -0.00000     0.00000

                  WFN1 Final alpha Correlation Function Analysis
                  ----------------------------------------------


 global array: Ca[1:4,1:4],  handle: -976 

                     1                       2                       3                       4  
       ----------------------- ----------------------- ----------------------- -----------------------
   1       0.87679,    0.02558    -0.47015,   -0.07170     0.00869,   -0.06092     0.02463,    0.00254
   2      -0.45472,   -0.15429    -0.78254,   -0.37736     0.04772,   -0.10177     0.04146,    0.01729
   3      -0.00017,    0.00004    -0.00242,    0.09776     0.63581,    0.27105     0.66243,    0.27184
   4      -0.00003,   -0.00010     0.04685,    0.08541     0.44706,   -0.55317    -0.43743,    0.54158

                   WFN1 Final beta Correlation Function Analysis
                   ---------------------------------------------


 global array: Cb[1:4,1:4],  handle: -975 

                     1                       2                       3                       4  
       ----------------------- ----------------------- ----------------------- -----------------------
   1       0.87679,    0.02558    -0.47015,   -0.07170     0.00869,   -0.06092     0.02463,    0.00254
   2      -0.45472,   -0.15429    -0.78254,   -0.37736     0.04772,   -0.10177     0.04146,    0.01729
   3      -0.00017,    0.00004    -0.00242,    0.09776     0.63581,    0.27105     0.66243,    0.27184
   4      -0.00003,   -0.00010     0.04685,    0.08541     0.44706,   -0.55317    -0.43743,    0.54158

                     WFN1 Final Alpha Natural Orbital Analysis
                     -----------------------------------------

 Vector    1  Occ=7.694208D-01  E= 0.000000D+00
              MO Center=  0.0D+00,  0.0D+00,  7.1D-08, r^2= 1.7D+00
   Bfn.  Coefficient  Atom+Function         Bfn.  Coefficient  Atom+Function  
  ----- ------------  ---------------      ----- ------------  ---------------
     2     -0.439388  1 H  s                  4     -0.439388  2 H  s          
     1     -0.256173  1 H  s                  3     -0.256173  2 H  s          

 Vector    2  Occ=2.305791D-01  E= 0.000000D+00
              MO Center=  0.0D+00,  0.0D+00, -1.5D-07, r^2= 1.9D+00
   Bfn.  Coefficient  Atom+Function         Bfn.  Coefficient  Atom+Function  
  ----- ------------  ---------------      ----- ------------  ---------------
     2     -0.523530  1 H  s                  4      0.523530  2 H  s          
     1     -0.350073  1 H  s                  3      0.350073  2 H  s          

 Vector    3  Occ=3.145243D-08  E= 0.000000D+00
              MO Center=  0.0D+00,  0.0D+00,  2.9D-02, r^2= 1.9D+00
   Bfn.  Coefficient  Atom+Function         Bfn.  Coefficient  Atom+Function  
  ----- ------------  ---------------      ----- ------------  ---------------
     3      0.918996  2 H  s                  1      0.893289  1 H  s          
     4     -0.703168  2 H  s                  2     -0.672777  1 H  s          

 Vector    4  Occ=1.075831D-08  E= 0.000000D+00
              MO Center=  0.0D+00,  0.0D+00, -2.9D-02, r^2= 2.7D+00
   Bfn.  Coefficient  Atom+Function         Bfn.  Coefficient  Atom+Function  
  ----- ------------  ---------------      ----- ------------  ---------------
     2     -1.067245  1 H  s                  4      1.047472  2 H  s          
     1      0.907438  1 H  s                  3     -0.881393  2 H  s          


                     WFN1 Final Beta Natural Orbital Analysis
                     ----------------------------------------

 Vector    1  Occ=7.694208D-01  E= 0.000000D+00
              MO Center=  0.0D+00,  0.0D+00,  7.1D-08, r^2= 1.7D+00
   Bfn.  Coefficient  Atom+Function         Bfn.  Coefficient  Atom+Function  
  ----- ------------  ---------------      ----- ------------  ---------------
     2     -0.439388  1 H  s                  4     -0.439388  2 H  s          
     1     -0.256173  1 H  s                  3     -0.256173  2 H  s          

 Vector    2  Occ=2.305791D-01  E= 0.000000D+00
              MO Center=  0.0D+00,  0.0D+00, -1.5D-07, r^2= 1.9D+00
   Bfn.  Coefficient  Atom+Function         Bfn.  Coefficient  Atom+Function  
  ----- ------------  ---------------      ----- ------------  ---------------
     2     -0.523530  1 H  s                  4      0.523530  2 H  s          
     1     -0.350073  1 H  s                  3      0.350073  2 H  s          

 Vector    3  Occ=3.145243D-08  E= 0.000000D+00
              MO Center=  0.0D+00,  0.0D+00,  2.9D-02, r^2= 1.9D+00
   Bfn.  Coefficient  Atom+Function         Bfn.  Coefficient  Atom+Function  
  ----- ------------  ---------------      ----- ------------  ---------------
     3      0.918996  2 H  s                  1      0.893289  1 H  s          
     4     -0.703168  2 H  s                  2     -0.672777  1 H  s          

 Vector    4  Occ=1.075831D-08  E= 0.000000D+00
              MO Center=  0.0D+00,  0.0D+00, -2.9D-02, r^2= 2.7D+00
   Bfn.  Coefficient  Atom+Function         Bfn.  Coefficient  Atom+Function  
  ----- ------------  ---------------      ----- ------------  ---------------
     2     -1.067245  1 H  s                  4      1.047472  2 H  s          
     1      0.907438  1 H  s                  3     -0.881393  2 H  s          


 Task  times  cpu:      190.8s     wall:      215.2s
 Summary of allocated global arrays
-----------------------------------
  No active global arrays



                         GA Statistics for process    0
                         ------------------------------

       create   destroy   get      put      acc     scatter   gather  read&inc
calls:   61       61     4.75e+07 2.10e+05 1.62e+05    0        0       11     
number of processes/call 1.00e+00 1.00e+00 1.00e+00 0.00e+00 0.00e+00
bytes total:             6.11e+09 3.82e+07 2.69e+07 0.00e+00 0.00e+00 8.80e+01
bytes remote:            0.00e+00 0.00e+00 0.00e+00 0.00e+00 0.00e+00 0.00e+00
Max memory consumed for GA by this process: 12160 bytes
MA_summarize_allocated_blocks: starting scan ...
MA_summarize_allocated_blocks: scan completed: 0 heap blocks, 0 stack blocks
MA usage statistics:

	allocation statistics:
					      heap	     stack
					      ----	     -----
	current number of blocks	         0	         0
	maximum number of blocks	        19	        17
	current total bytes		         0	         0
	maximum total bytes		   3204344	  22508664
	maximum total K-bytes		      3205	     22509
	maximum total M-bytes		         4	        23


                                NWChem Input Module
                                -------------------





                                     CITATION
                                     --------
                Please cite the following reference when publishing
                           results obtained with NWChem:

                 M. Valiev, E.J. Bylaska, N. Govind, K. Kowalski,
              T.P. Straatsma, H.J.J. van Dam, D. Wang, J. Nieplocha,
                        E. Apra, T.L. Windus, W.A. de Jong
                 "NWChem: a comprehensive and scalable open-source
                  solution for large scale molecular simulations"
                      Comput. Phys. Commun. 181, 1477 (2010)
                           doi:10.1016/j.cpc.2010.04.018

                                      AUTHORS
                                      -------
          E. Apra, E. J. Bylaska, W. A. de Jong, N. Govind, K. Kowalski,
       T. P. Straatsma, M. Valiev, H. J. J. van Dam, D. Wang, T. L. Windus,
        J. Hammond, J. Autschbach, K. Bhaskaran-Nair, J. Brabec, K. Lopata,
    S. A. Fischer, S. Krishnamoorthy, M. Jacquelin, W. Ma, M. Klemm, O. Villa,
      Y. Chen, V. Anisimov, F. Aquino, S. Hirata, M. T. Hackler, V. Konjkov,
      T. Risthaus, M. Malagoli, A. Marenich, A. Otero-de-la-Roza, J. Mullin,
        P. Nichols, R. Peverati, J. Pittner, Y. Zhao, P.-D. Fan, A. Fonari,
       M. Williamson, R. J. Harrison, J. R. Rehr, M. Dupuis, D. Silverstein,
    D. M. A. Smith, J. Nieplocha, V. Tipparaju, M. Krishnan, B. E. Van Kuiken,
        A. Vazquez-Mayagoitia, L. Jensen, M. Swart, Q. Wu, T. Van Voorhis,
     A. A. Auer, M. Nooijen, L. D. Crosby, E. Brown, G. Cisneros, G. I. Fann,
   H. Fruchtl, J. Garza, K. Hirao, R. A. Kendall, J. A. Nichols, K. Tsemekhman,
    K. Wolinski, J. Anchell, D. E. Bernholdt, P. Borowski, T. Clark, D. Clerc,
   H. Dachsel, M. J. O. Deegan, K. Dyall, D. Elwood, E. Glendening, M. Gutowski,
   A. C. Hess, J. Jaffe, B. G. Johnson, J. Ju, R. Kobayashi, R. Kutteh, Z. Lin,
   R. Littlefield, X. Long, B. Meng, T. Nakajima, S. Niu, L. Pollack, M. Rosing,
   K. Glaesemann, G. Sandrone, M. Stave, H. Taylor, G. Thomas, J. H. van Lenthe,
                               A. T. Wong, Z. Zhang.

 Total times  cpu:      190.8s     wall:      215.3s
        0.769421        0.230579        0.000000        0.000000        0.769421        0.230579        0.000000        0.000000