 argument  1 = /home/hvandam/nwchem-1-wfn1/QA/tests/wfn1-h2-6-31g-wfn1c14e/input-wf-6-31g-5.138692.nw



============================== echo of input deck ==============================
echo
start wfn1_dat
geometry units au noautoz
  H 0 0 -2.56934600000000000000
  H 0 0  2.56934600000000000000
  symmetry cs
end
basis
  H library 6-31g
end
set wfn1:input_vectors "atomic"
set wfn1:solver "monte-carlo"
set wfn1:print_error F
set wfn1:t_initial 0.1
#set wfn1:corr_expr "wfn1_mx"
set wfn1:corr_expr "wfn1c14"
#
set wfn1:fcd00  0.198826
set wfn1:fcd01  0.294438
set wfn1:fcd11  0.247007
set wfn1:fcd05  0.020225
set wfn1:fcd51  -0.098842
set wfn1:fcd55  -0.201236
#
set wfn1:rcd00  0.884548
set wfn1:rcd01  1.211432
set wfn1:rcd11  0.255064
set wfn1:rcd05  0.988291
set wfn1:rcd51  0.535281
set wfn1:rcd55  0.701049
#
set wfn1:fco00  -0.005884
set wfn1:fco01  0.063203
set wfn1:fco11  0.357171
set wfn1:fco05  0.019518
set wfn1:fco51  0.871725
set wfn1:fco55  1.051801
#
set wfn1:rco00  1.033050
set wfn1:rco01  0.850461
set wfn1:rco11  0.110139
set wfn1:rco05  0.985630
set wfn1:rco51  0.139729
set wfn1:rco55  0.918333
#
set wfn1:t_bath 0.0
set wfn1:maxit  20000
task wfn1 energy
================================================================================


                                         
                                         


              Northwest Computational Chemistry Package (NWChem) 6.8
              ------------------------------------------------------


                    Environmental Molecular Sciences Laboratory
                       Pacific Northwest National Laboratory
                                Richland, WA 99352

                              Copyright (c) 1994-2015
                       Pacific Northwest National Laboratory
                            Battelle Memorial Institute

             NWChem is an open-source computational chemistry package
                        distributed under the terms of the
                      Educational Community License (ECL) 2.0
             A copy of the license is included with this distribution
                              in the LICENSE.TXT file

                                  ACKNOWLEDGMENT
                                  --------------

            This software and its documentation were developed at the
            EMSL at Pacific Northwest National Laboratory, a multiprogram
            national laboratory, operated for the U.S. Department of Energy
            by Battelle under Contract Number DE-AC05-76RL01830. Support
            for this work was provided by the Department of Energy Office
            of Biological and Environmental Research, Office of Basic
            Energy Sciences, and the Office of Advanced Scientific Computing.


           Job information
           ---------------

    hostname        = node023
    program         = /home/hvandam/nwchem-1-wfn1/bin/LINUX64/nwchem
    date            = Thu Jun 17 23:50:56 2021

    compiled        = Sun_Jun_13_23:38:55_2021
    source          = /home/hvandam/nwchem-1-wfn1
    nwchem branch   = Development
    nwchem revision = nwchem_on_git-124-gad72d19fff205e319ffbbf2bca37a04ded6ad57b
    ga revision     = nwchem_on_git-124-gad72d19
    use scalapack   = F
    input           = /home/hvandam/nwchem-1-wfn1/QA/tests/wfn1-h2-6-31g-wfn1c14e/input-wf-6-31g-5.138692.nw
    prefix          = wfn1_dat.
    data base       = ./wfn1_dat.db
    status          = startup
    nproc           =        1
    time left       =     -1s



           Memory information
           ------------------

    heap     =   13107196 doubles =    100.0 Mbytes
    stack    =   13107201 doubles =    100.0 Mbytes
    global   =   26214400 doubles =    200.0 Mbytes (distinct from heap & stack)
    total    =   52428797 doubles =    400.0 Mbytes
    verify   = yes
    hardfail = no 


           Directory information
           ---------------------

  0 permanent = .
  0 scratch   = .




                                NWChem Input Module
                                -------------------


 Turning off AUTOSYM since
 SYMMETRY directive was detected!



                             Geometry "geometry" -> ""
                             -------------------------

 Output coordinates in a.u. (scale by  1.000000000 to convert to a.u.)

  No.       Tag          Charge          X              Y              Z
 ---- ---------------- ---------- -------------- -------------- --------------
    1 H                    1.0000     0.00000000     0.00000000    -2.56934600
    2 H                    1.0000     0.00000000     0.00000000     2.56934600

      Atomic Mass 
      ----------- 

      H                  1.007825


 Effective nuclear repulsion energy (a.u.)       0.1946020505

            Nuclear Dipole moment (a.u.) 
            ----------------------------
        X                 Y               Z
 ---------------- ---------------- ----------------
     0.0000000000     0.0000000000     0.0000000000

      Symmetry information
      --------------------

 Group name             Cs        
 Group number              2
 Group order               2
 No. of unique centers     1

      Symmetry unique atoms

     1


            XYZ format geometry
            -------------------
     2
 geometry
 H                     0.00000000     0.00000000    -1.35963945
 H                     0.00000000     0.00000000     1.35963945

                      Basis "ao basis" -> "" (cartesian)
                      -----
  H (Hydrogen)
  ------------
            Exponent  Coefficients 
       -------------- ---------------------------------------------------------
  1 S  1.87311370E+01  0.033495
  1 S  2.82539370E+00  0.234727
  1 S  6.40121700E-01  0.813757

  2 S  1.61277800E-01  1.000000



 Summary of "ao basis" -> "" (cartesian)
 ------------------------------------------------------------------------------
       Tag                 Description            Shells   Functions and Types
 ---------------- ------------------------------  ------  ---------------------
 H                           6-31g                   2        2   2s



                                NWChem WFN1 Module
                                ------------------



          No. of electrons :     2
           Alpha electrons :     1
            Beta electrons :     1
          Charge           :     0
          Spin multiplicity:     1

 HvD: wfn1_inpdft
 HvD: nquad_task =                     1
 HvD: iangquad   =                     0
 HvD: gridtype   = user      
 HvD: leb        =  T
 HvD: radgrid    = murakn    
 HvD: trunc_neigh=  T
 HvD: lssw       =  T
 HvD: whichssw   = erf1    
 HvD: mxnrad     =                     0
 HvD: mxnang     =                     0
 HVD: wfn1: movecs_in  = atomic                                                                                                                                                                                                                                                          
 HVD: wfn1: movecs_out = ./wfn1_dat.movecs                                                                                                                                                                                                                                               

      Superposition of Atomic Density Guess
      -------------------------------------

 Sum of atomic energies:          -0.99646508

      Non-variational initial energy
      ------------------------------

 Total energy =      -0.683220
 1-e energy   =      -1.385664
 2-e energy   =       0.507841
 HOMO         =      -0.219249
 LUMO         =      -0.161322

 iteration              energy           error
 ---------              ------           -----
         0         -0.98452013        0.020000
         1         -0.98488430        0.020000
         2         -0.98504169        0.020000
         3         -0.98597126        0.020000
         4         -0.98726657        0.020000
         5         -0.98869418        0.020000
         6         -0.98905951        0.020000
         7         -0.98943920        0.020000
         8         -0.99012482        0.020000
         9         -0.99069998        0.020000
        10         -0.99143466        0.020000
        11         -0.99204206        0.020000
        12         -0.99224868        0.020000
        13         -0.99232928        0.020000
        14         -0.99296536        0.020000
        15         -0.99401973        0.020000
        16         -0.99410740        0.020000
        17         -0.99414970        0.020000
        18         -0.99484468        0.020000
        19         -0.99489170        0.020000
        20         -0.99495982        0.020000
        21         -0.99499410        0.020000
        22         -0.99521737        0.020000
        23         -0.99555172        0.020000
        24         -0.99555509        0.020000
        25         -0.99560817        0.020000
        26         -0.99570581        0.020000
        27         -0.99574329        0.020000
        28         -0.99594223        0.020000
        29         -0.99602069        0.020000
        30         -0.99607486        0.020000
        31         -0.99608808        0.020000
        32         -0.99609047        0.020000
        33         -0.99609920        0.019181
        34         -0.99616687        0.017646
        35         -0.99619857        0.017646
        36         -0.99621253        0.017646
        37         -0.99624001        0.017199
        38         -0.99625371        0.016871
        39         -0.99625504        0.012679
        40         -0.99627376        0.010392
        41         -0.99627611        0.010128
        42         -0.99627656        0.007612
        43         -0.99627822        0.007612
        44         -0.99628226        0.007612
        45         -0.99628282        0.006239
        46         -0.99628332        0.006239
        47         -0.99628489        0.003968
        48         -0.99628626        0.003880
        49         -0.99628812        0.003468
        50         -0.99628821        0.003099
        51         -0.99628834        0.002691
        52         -0.99628847        0.002691
        53         -0.99628877        0.002023
        54         -0.99628888        0.001978
        55         -0.99628891        0.001819
        56         -0.99628899        0.001819
        57         -0.99628911        0.001491
        58         -0.99628916        0.001416
        59         -0.99628917        0.001195
        60         -0.99628923        0.001131
        61         -0.99628932        0.001041
        62         -0.99628933        0.000853
        63         -0.99628935        0.000831
        64         -0.99628936        0.000496
        65         -0.99628936        0.000483
        66         -0.99628937        0.000396
        67         -0.99628937        0.000396
        68         -0.99628937        0.000386
        69         -0.99628938        0.000367
        70         -0.99628938        0.000301
        71         -0.99628938        0.000293
        72         -0.99628938        0.000270
        73         -0.99628938        0.000263
        74         -0.99628938        0.000228
        75         -0.99628939        0.000228
        76         -0.99628939        0.000136
        77         -0.99628939        0.000136
        78         -0.99628939        0.000133
        79         -0.99628939        0.000113
        80         -0.99628939        0.000110
        81         -0.99628939        0.000098
        82         -0.99628939        0.000093
        83         -0.99628939        0.000074
        84         -0.99628939        0.000074
        85         -0.99628939        0.000057
        86         -0.99628939        0.000056
        87         -0.99628939        0.000051
        88         -0.99628939        0.000042
        89         -0.99628939        0.000039
        90         -0.99628939        0.000036
        91         -0.99628939        0.000027
        92         -0.99628939        0.000022
        93         -0.99628939        0.000014
        94         -0.99628939        0.000012
        95         -0.99628939        0.000012
        96         -0.99628939        0.000012
        97         -0.99628939        0.000011
        98         -0.99628939        0.000011
        99         -0.99628939        0.000009
       100         -0.99628939        0.000009
       101         -0.99628939        0.000006
       102         -0.99628939        0.000006
       103         -0.99628939        0.000006
       104         -0.99628939        0.000005
       105         -0.99628939        0.000005
       106         -0.99628939        0.000004
       107         -0.99628939        0.000004
       108         -0.99628939        0.000004
       109         -0.99628939        0.000004
       110         -0.99628939        0.000003
       111         -0.99628939        0.000003
       112         -0.99628939        0.000003
       113         -0.99628939        0.000002
       114         -0.99628939        0.000002
       115         -0.99628939        0.000002
       116         -0.99628939        0.000002
       117         -0.99628939        0.000002
       118         -0.99628939        0.000002
       119         -0.99628939        0.000001
       120         -0.99628939        0.000001
       121         -0.99628939        0.000001
       122         -0.99628939        0.000001
       123         -0.99628939        0.000001
       124         -0.99628939        0.000001
       125         -0.99628939        0.000001

 Reached Convergence

 WFN1                     :
 --------------------------
 Total WFN1 energy  =          -0.9962893887
 1-Electron energy  =          -1.3894917056
 2-Electron energy  =           0.4103240375
 Correlation energy =          -0.2117237711
 DFT XC energy      =           0.0000000000
 Entropy energy     =           0.0000000000
 Nuclear energy     =           0.1946020505

 conventional Hartree-Fock:
 --------------------------
 Total SCF energy  =          -0.9019868416
 2-Electron energy =           0.5046265846

                WFN1 Final Natural orbital energies and occupations
                ---------------------------------------------------

              Alpha       Beta            Alpha       Beta  
            --------    --------        --------    --------
       1      0.0000      0.0000          0.5807      0.5807
       2      0.0000      0.0000          0.4193      0.4193
       3      0.0000      0.0000          0.0000      0.0000
       4      0.0000      0.0000          0.0000      0.0000

             WFN1 Final Correlation function energies and occupations
             --------------------------------------------------------

              Alpha       Beta            Alpha       Beta  
            --------    --------        --------    --------
       1      0.0000      0.0000          1.0000      1.0000
       2      0.0000      0.0000          0.0000      0.0000
       3      0.0000      0.0000          0.0000      0.0000
       4      0.0000      0.0000          0.0000      0.0000

                WFN1 Final alpha-alpha 2-matrix occupation numbers
                --------------------------------------------------


 global array: g_momo1[1:4,1:4],  handle: -990 

            1           2           3           4  
       ----------- ----------- ----------- -----------
   1       0.00000    -0.00000     0.00000     0.00000
   2      -0.00000     0.00000     0.00000     0.00000
   3       0.00000     0.00000     0.00000     0.00000
   4       0.00000    -0.00000     0.00000     0.00000

                 WFN1 Final beta-beta 2-matrix occupation numbers
                 ------------------------------------------------


 global array: g_momo2[1:4,1:4],  handle: -989 

            1           2           3           4  
       ----------- ----------- ----------- -----------
   1       0.00000    -0.00000     0.00000     0.00000
   2      -0.00000     0.00000     0.00000     0.00000
   3       0.00000     0.00000     0.00000     0.00000
   4       0.00000    -0.00000     0.00000     0.00000

                  WFN1 Final alpha Correlation Function Analysis
                  ----------------------------------------------


 global array: Ca[1:4,1:4],  handle: -972 

                     1                       2                       3                       4  
       ----------------------- ----------------------- ----------------------- -----------------------
   1      -0.67342,    0.35670    -0.56983,    0.29701     0.01752,    0.02047    -0.05406,   -0.05194
   2       0.49138,   -0.42169    -0.57716,    0.48867     0.02578,    0.01915    -0.07563,   -0.04549
   3      -0.00018,    0.00018     0.03932,   -0.07723     0.88075,    0.21139    -0.41013,   -0.06218
   4      -0.00009,    0.00009    -0.08718,    0.00745     0.13603,    0.39915     0.36282,    0.82636

                   WFN1 Final beta Correlation Function Analysis
                   ---------------------------------------------


 global array: Cb[1:4,1:4],  handle: -971 

                     1                       2                       3                       4  
       ----------------------- ----------------------- ----------------------- -----------------------
   1      -0.67342,    0.35670    -0.56983,    0.29701     0.01752,    0.02047    -0.05406,   -0.05194
   2       0.49138,   -0.42169    -0.57716,    0.48867     0.02578,    0.01915    -0.07563,   -0.04549
   3      -0.00018,    0.00018     0.03932,   -0.07723     0.88075,    0.21139    -0.41013,   -0.06218
   4      -0.00009,    0.00009    -0.08718,    0.00745     0.13603,    0.39915     0.36282,    0.82636

                     WFN1 Final Alpha Natural Orbital Analysis
                     -----------------------------------------

 Vector    1  Occ=5.807299D-01  E= 0.000000D+00
              MO Center=  0.0D+00,  0.0D+00,  3.7D-07, r^2= 2.6D+00
   Bfn.  Coefficient  Atom+Function         Bfn.  Coefficient  Atom+Function  
  ----- ------------  ---------------      ----- ------------  ---------------
     2     -0.462016  1 H  s                  4     -0.462016  2 H  s          
     1     -0.285909  1 H  s                  3     -0.285909  2 H  s          

 Vector    2  Occ=4.192700D-01  E= 0.000000D+00
              MO Center=  0.0D+00,  0.0D+00, -4.0D-07, r^2= 2.7D+00
   Bfn.  Coefficient  Atom+Function         Bfn.  Coefficient  Atom+Function  
  ----- ------------  ---------------      ----- ------------  ---------------
     2     -0.480419  1 H  s                  4      0.480419  2 H  s          
     1     -0.318595  1 H  s                  3      0.318594  2 H  s          

 Vector    3  Occ=6.599566D-08  E= 0.000000D+00
              MO Center=  0.0D+00,  0.0D+00,  1.7D-01, r^2= 2.8D+00
   Bfn.  Coefficient  Atom+Function         Bfn.  Coefficient  Atom+Function  
  ----- ------------  ---------------      ----- ------------  ---------------
     3     -0.931055  2 H  s                  1     -0.818979  1 H  s          
     4      0.793814  2 H  s                  2      0.682021  1 H  s          

 Vector    4  Occ=1.515004D-08  E= 0.000000D+00
              MO Center=  0.0D+00,  0.0D+00, -1.7D-01, r^2= 3.4D+00
   Bfn.  Coefficient  Atom+Function         Bfn.  Coefficient  Atom+Function  
  ----- ------------  ---------------      ----- ------------  ---------------
     1     -0.961619  1 H  s                  2      0.950871  1 H  s          
     4     -0.859748  2 H  s                  3      0.853567  2 H  s          


                     WFN1 Final Beta Natural Orbital Analysis
                     ----------------------------------------

 Vector    1  Occ=5.807299D-01  E= 0.000000D+00
              MO Center=  0.0D+00,  0.0D+00,  3.7D-07, r^2= 2.6D+00
   Bfn.  Coefficient  Atom+Function         Bfn.  Coefficient  Atom+Function  
  ----- ------------  ---------------      ----- ------------  ---------------
     2     -0.462016  1 H  s                  4     -0.462016  2 H  s          
     1     -0.285909  1 H  s                  3     -0.285909  2 H  s          

 Vector    2  Occ=4.192700D-01  E= 0.000000D+00
              MO Center=  0.0D+00,  0.0D+00, -4.0D-07, r^2= 2.7D+00
   Bfn.  Coefficient  Atom+Function         Bfn.  Coefficient  Atom+Function  
  ----- ------------  ---------------      ----- ------------  ---------------
     2     -0.480419  1 H  s                  4      0.480419  2 H  s          
     1     -0.318595  1 H  s                  3      0.318594  2 H  s          

 Vector    3  Occ=6.599566D-08  E= 0.000000D+00
              MO Center=  0.0D+00,  0.0D+00,  1.7D-01, r^2= 2.8D+00
   Bfn.  Coefficient  Atom+Function         Bfn.  Coefficient  Atom+Function  
  ----- ------------  ---------------      ----- ------------  ---------------
     3     -0.931055  2 H  s                  1     -0.818979  1 H  s          
     4      0.793814  2 H  s                  2      0.682021  1 H  s          

 Vector    4  Occ=1.515004D-08  E= 0.000000D+00
              MO Center=  0.0D+00,  0.0D+00, -1.7D-01, r^2= 3.4D+00
   Bfn.  Coefficient  Atom+Function         Bfn.  Coefficient  Atom+Function  
  ----- ------------  ---------------      ----- ------------  ---------------
     1     -0.961619  1 H  s                  2      0.950871  1 H  s          
     4     -0.859748  2 H  s                  3      0.853567  2 H  s          


 Task  times  cpu:      190.4s     wall:      214.8s
 Summary of allocated global arrays
-----------------------------------
  No active global arrays



                         GA Statistics for process    0
                         ------------------------------

       create   destroy   get      put      acc     scatter   gather  read&inc
calls:   61       61     4.81e+07 2.13e+05 1.64e+05    0        0       11     
number of processes/call 1.00e+00 1.00e+00 1.00e+00 0.00e+00 0.00e+00
bytes total:             6.19e+09 3.87e+07 2.72e+07 0.00e+00 0.00e+00 8.80e+01
bytes remote:            0.00e+00 0.00e+00 0.00e+00 0.00e+00 0.00e+00 0.00e+00
Max memory consumed for GA by this process: 12160 bytes
MA_summarize_allocated_blocks: starting scan ...
MA_summarize_allocated_blocks: scan completed: 0 heap blocks, 0 stack blocks
MA usage statistics:

	allocation statistics:
					      heap	     stack
					      ----	     -----
	current number of blocks	         0	         0
	maximum number of blocks	        19	        17
	current total bytes		         0	         0
	maximum total bytes		   3204360	  22508648
	maximum total K-bytes		      3205	     22509
	maximum total M-bytes		         4	        23


                                NWChem Input Module
                                -------------------





                                     CITATION
                                     --------
                Please cite the following reference when publishing
                           results obtained with NWChem:

                 M. Valiev, E.J. Bylaska, N. Govind, K. Kowalski,
              T.P. Straatsma, H.J.J. van Dam, D. Wang, J. Nieplocha,
                        E. Apra, T.L. Windus, W.A. de Jong
                 "NWChem: a comprehensive and scalable open-source
                  solution for large scale molecular simulations"
                      Comput. Phys. Commun. 181, 1477 (2010)
                           doi:10.1016/j.cpc.2010.04.018

                                      AUTHORS
                                      -------
          E. Apra, E. J. Bylaska, W. A. de Jong, N. Govind, K. Kowalski,
       T. P. Straatsma, M. Valiev, H. J. J. van Dam, D. Wang, T. L. Windus,
        J. Hammond, J. Autschbach, K. Bhaskaran-Nair, J. Brabec, K. Lopata,
    S. A. Fischer, S. Krishnamoorthy, M. Jacquelin, W. Ma, M. Klemm, O. Villa,
      Y. Chen, V. Anisimov, F. Aquino, S. Hirata, M. T. Hackler, V. Konjkov,
      T. Risthaus, M. Malagoli, A. Marenich, A. Otero-de-la-Roza, J. Mullin,
        P. Nichols, R. Peverati, J. Pittner, Y. Zhao, P.-D. Fan, A. Fonari,
       M. Williamson, R. J. Harrison, J. R. Rehr, M. Dupuis, D. Silverstein,
    D. M. A. Smith, J. Nieplocha, V. Tipparaju, M. Krishnan, B. E. Van Kuiken,
        A. Vazquez-Mayagoitia, L. Jensen, M. Swart, Q. Wu, T. Van Voorhis,
     A. A. Auer, M. Nooijen, L. D. Crosby, E. Brown, G. Cisneros, G. I. Fann,
   H. Fruchtl, J. Garza, K. Hirao, R. A. Kendall, J. A. Nichols, K. Tsemekhman,
    K. Wolinski, J. Anchell, D. E. Bernholdt, P. Borowski, T. Clark, D. Clerc,
   H. Dachsel, M. J. O. Deegan, K. Dyall, D. Elwood, E. Glendening, M. Gutowski,
   A. C. Hess, J. Jaffe, B. G. Johnson, J. Ju, R. Kobayashi, R. Kutteh, Z. Lin,
   R. Littlefield, X. Long, B. Meng, T. Nakajima, S. Niu, L. Pollack, M. Rosing,
   K. Glaesemann, G. Sandrone, M. Stave, H. Taylor, G. Thomas, J. H. van Lenthe,
                               A. T. Wong, Z. Zhang.

 Total times  cpu:      190.4s     wall:      214.9s
        0.580730        0.419270        0.000000        0.000000        0.580730        0.419270        0.000000        0.000000