 argument  1 = /home/hvandam/nwchem-1-wfn1/QA/tests/wfn1-h2-6-31g-wfn1c14e/input-wf-6-31g-5.888692.nw



============================== echo of input deck ==============================
echo
start wfn1_dat
geometry units au noautoz
  H 0 0 -2.94434600000000000000
  H 0 0  2.94434600000000000000
  symmetry cs
end
basis
  H library 6-31g
end
set wfn1:input_vectors "atomic"
set wfn1:solver "monte-carlo"
set wfn1:print_error F
set wfn1:t_initial 0.1
#set wfn1:corr_expr "wfn1_mx"
set wfn1:corr_expr "wfn1c14"
#
set wfn1:fcd00  0.198826
set wfn1:fcd01  0.294438
set wfn1:fcd11  0.247007
set wfn1:fcd05  0.020225
set wfn1:fcd51  -0.098842
set wfn1:fcd55  -0.201236
#
set wfn1:rcd00  0.884548
set wfn1:rcd01  1.211432
set wfn1:rcd11  0.255064
set wfn1:rcd05  0.988291
set wfn1:rcd51  0.535281
set wfn1:rcd55  0.701049
#
set wfn1:fco00  -0.005884
set wfn1:fco01  0.063203
set wfn1:fco11  0.357171
set wfn1:fco05  0.019518
set wfn1:fco51  0.871725
set wfn1:fco55  1.051801
#
set wfn1:rco00  1.033050
set wfn1:rco01  0.850461
set wfn1:rco11  0.110139
set wfn1:rco05  0.985630
set wfn1:rco51  0.139729
set wfn1:rco55  0.918333
#
set wfn1:t_bath 0.0
set wfn1:maxit  20000
task wfn1 energy
================================================================================


                                         
                                         


              Northwest Computational Chemistry Package (NWChem) 6.8
              ------------------------------------------------------


                    Environmental Molecular Sciences Laboratory
                       Pacific Northwest National Laboratory
                                Richland, WA 99352

                              Copyright (c) 1994-2015
                       Pacific Northwest National Laboratory
                            Battelle Memorial Institute

             NWChem is an open-source computational chemistry package
                        distributed under the terms of the
                      Educational Community License (ECL) 2.0
             A copy of the license is included with this distribution
                              in the LICENSE.TXT file

                                  ACKNOWLEDGMENT
                                  --------------

            This software and its documentation were developed at the
            EMSL at Pacific Northwest National Laboratory, a multiprogram
            national laboratory, operated for the U.S. Department of Energy
            by Battelle under Contract Number DE-AC05-76RL01830. Support
            for this work was provided by the Department of Energy Office
            of Biological and Environmental Research, Office of Basic
            Energy Sciences, and the Office of Advanced Scientific Computing.


           Job information
           ---------------

    hostname        = node023
    program         = /home/hvandam/nwchem-1-wfn1/bin/LINUX64/nwchem
    date            = Thu Jun 17 23:50:57 2021

    compiled        = Sun_Jun_13_23:38:55_2021
    source          = /home/hvandam/nwchem-1-wfn1
    nwchem branch   = Development
    nwchem revision = nwchem_on_git-124-gad72d19fff205e319ffbbf2bca37a04ded6ad57b
    ga revision     = nwchem_on_git-124-gad72d19
    use scalapack   = F
    input           = /home/hvandam/nwchem-1-wfn1/QA/tests/wfn1-h2-6-31g-wfn1c14e/input-wf-6-31g-5.888692.nw
    prefix          = wfn1_dat.
    data base       = ./wfn1_dat.db
    status          = startup
    nproc           =        1
    time left       =     -1s



           Memory information
           ------------------

    heap     =   13107200 doubles =    100.0 Mbytes
    stack    =   13107197 doubles =    100.0 Mbytes
    global   =   26214400 doubles =    200.0 Mbytes (distinct from heap & stack)
    total    =   52428797 doubles =    400.0 Mbytes
    verify   = yes
    hardfail = no 


           Directory information
           ---------------------

  0 permanent = .
  0 scratch   = .




                                NWChem Input Module
                                -------------------


 Turning off AUTOSYM since
 SYMMETRY directive was detected!



                             Geometry "geometry" -> ""
                             -------------------------

 Output coordinates in a.u. (scale by  1.000000000 to convert to a.u.)

  No.       Tag          Charge          X              Y              Z
 ---- ---------------- ---------- -------------- -------------- --------------
    1 H                    1.0000     0.00000000     0.00000000    -2.94434600
    2 H                    1.0000     0.00000000     0.00000000     2.94434600

      Atomic Mass 
      ----------- 

      H                  1.007825


 Effective nuclear repulsion energy (a.u.)       0.1698169984

            Nuclear Dipole moment (a.u.) 
            ----------------------------
        X                 Y               Z
 ---------------- ---------------- ----------------
     0.0000000000     0.0000000000     0.0000000000

      Symmetry information
      --------------------

 Group name             Cs        
 Group number              2
 Group order               2
 No. of unique centers     1

      Symmetry unique atoms

     1


            XYZ format geometry
            -------------------
     2
 geometry
 H                     0.00000000     0.00000000    -1.55808092
 H                     0.00000000     0.00000000     1.55808092

                      Basis "ao basis" -> "" (cartesian)
                      -----
  H (Hydrogen)
  ------------
            Exponent  Coefficients 
       -------------- ---------------------------------------------------------
  1 S  1.87311370E+01  0.033495
  1 S  2.82539370E+00  0.234727
  1 S  6.40121700E-01  0.813757

  2 S  1.61277800E-01  1.000000



 Summary of "ao basis" -> "" (cartesian)
 ------------------------------------------------------------------------------
       Tag                 Description            Shells   Functions and Types
 ---------------- ------------------------------  ------  ---------------------
 H                           6-31g                   2        2   2s



                                NWChem WFN1 Module
                                ------------------



          No. of electrons :     2
           Alpha electrons :     1
            Beta electrons :     1
          Charge           :     0
          Spin multiplicity:     1

 HvD: wfn1_inpdft
 HvD: nquad_task =                     1
 HvD: iangquad   =                     0
 HvD: gridtype   = user      
 HvD: leb        =  T
 HvD: radgrid    = murakn    
 HvD: trunc_neigh=  T
 HvD: lssw       =  T
 HvD: whichssw   = erf1    
 HvD: mxnrad     =                     0
 HvD: mxnang     =                     0
 HVD: wfn1: movecs_in  = atomic                                                                                                                                                                                                                                                          
 HVD: wfn1: movecs_out = ./wfn1_dat.movecs                                                                                                                                                                                                                                               

      Superposition of Atomic Density Guess
      -------------------------------------

 Sum of atomic energies:          -0.99646508

      Non-variational initial energy
      ------------------------------

 Total energy =      -0.682357
 1-e energy   =      -1.336099
 2-e energy   =       0.483925
 HOMO         =      -0.206714
 LUMO         =      -0.175114

 iteration              energy           error
 ---------              ------           -----
         0         -0.98318740        0.020000
         1         -0.98323570        0.020000
         2         -0.98334857        0.020000
         3         -0.98428518        0.020000
         4         -0.98473183        0.020000
         5         -0.98526657        0.020000
         6         -0.98665158        0.020000
         7         -0.98697856        0.020000
         8         -0.98700617        0.020000
         9         -0.98713093        0.020000
        10         -0.98803090        0.020000
        11         -0.98825609        0.020000
        12         -0.98878253        0.020000
        13         -0.98938751        0.020000
        14         -0.98998246        0.020000
        15         -0.99019747        0.020000
        16         -0.99036192        0.020000
        17         -0.99045917        0.020000
        18         -0.99079439        0.020000
        19         -0.99108449        0.020000
        20         -0.99125098        0.020000
        21         -0.99149579        0.020000
        22         -0.99244264        0.020000
        23         -0.99262993        0.020000
        24         -0.99270661        0.020000
        25         -0.99278822        0.020000
        26         -0.99329442        0.020000
        27         -0.99331814        0.020000
        28         -0.99337730        0.020000
        29         -0.99348970        0.020000
        30         -0.99350682        0.020000
        31         -0.99375175        0.020000
        32         -0.99399976        0.020000
        33         -0.99400525        0.020000
        34         -0.99425284        0.020000
        35         -0.99438977        0.020000
        36         -0.99476456        0.020000
        37         -0.99477317        0.020000
        38         -0.99480780        0.020000
        39         -0.99512990        0.020000
        40         -0.99520813        0.020000
        41         -0.99529415        0.020000
        42         -0.99532536        0.020000
        43         -0.99535054        0.020000
        44         -0.99535993        0.020000
        45         -0.99538929        0.020000
        46         -0.99546929        0.020000
        47         -0.99547905        0.019934
        48         -0.99547985        0.018997
        49         -0.99552584        0.018997
        50         -0.99552694        0.016495
        51         -0.99553090        0.012802
        52         -0.99553327        0.012477
        53         -0.99553784        0.012161
        54         -0.99554225        0.011853
        55         -0.99554329        0.010904
        56         -0.99554710        0.010031
        57         -0.99555607        0.008710
        58         -0.99555675        0.008710
        59         -0.99555729        0.008489
        60         -0.99555898        0.007612
        61         -0.99556171        0.007419
        62         -0.99556885        0.007419
        63         -0.99556926        0.006631
        64         -0.99556949        0.004857
        65         -0.99557092        0.004341
        66         -0.99557092        0.004110
        67         -0.99557115        0.003468
        68         -0.99557151        0.003380
        69         -0.99557153        0.003380
        70         -0.99557233        0.003109
        71         -0.99557244        0.002954
        72         -0.99557278        0.002954
        73         -0.99557307        0.002879
        74         -0.99557364        0.002657
        75         -0.99557372        0.002241
        76         -0.99557388        0.002184
        77         -0.99557446        0.001897
        78         -0.99557450        0.001647
        79         -0.99557451        0.001430
        80         -0.99557456        0.001394
        81         -0.99557474        0.001359
        82         -0.99557475        0.001250
        83         -0.99557476        0.000967
        84         -0.99557479        0.000915
        85         -0.99557481        0.000842
        86         -0.99557481        0.000671
        87         -0.99557486        0.000635
        88         -0.99557488        0.000635
        89         -0.99557488        0.000601
        90         -0.99557491        0.000524
        91         -0.99557492        0.000510
        92         -0.99557492        0.000443
        93         -0.99557493        0.000443
        94         -0.99557493        0.000305
        95         -0.99557494        0.000299
        96         -0.99557494        0.000275
        97         -0.99557494        0.000275
        98         -0.99557494        0.000253
        99         -0.99557494        0.000253
       100         -0.99557494        0.000214
       101         -0.99557494        0.000186
       102         -0.99557494        0.000157
       103         -0.99557494        0.000157
       104         -0.99557494        0.000125
       105         -0.99557494        0.000116
       106         -0.99557494        0.000087
       107         -0.99557494        0.000069
       108         -0.99557494        0.000065
       109         -0.99557494        0.000059
       110         -0.99557494        0.000052
       111         -0.99557494        0.000047
       112         -0.99557494        0.000047
       113         -0.99557494        0.000044
       114         -0.99557494        0.000035
       115         -0.99557494        0.000034
       116         -0.99557494        0.000030
       117         -0.99557494        0.000025
       118         -0.99557494        0.000023
       119         -0.99557494        0.000019
       120         -0.99557494        0.000019
       121         -0.99557494        0.000018
       122         -0.99557494        0.000018
       123         -0.99557494        0.000017
       124         -0.99557494        0.000014
       125         -0.99557494        0.000010
       126         -0.99557494        0.000009
       127         -0.99557494        0.000008
       128         -0.99557494        0.000006
       129         -0.99557494        0.000005
       130         -0.99557494        0.000005
       131         -0.99557494        0.000004
       132         -0.99557494        0.000004
       133         -0.99557494        0.000004
       134         -0.99557494        0.000003
       135         -0.99557494        0.000003
       136         -0.99557494        0.000002
       137         -0.99557494        0.000002
       138         -0.99557494        0.000001
       139         -0.99557494        0.000001
       140         -0.99557494        0.000001
       141         -0.99557494        0.000001
       142         -0.99557494        0.000001
       143         -0.99557494        0.000001

 Reached Convergence

 WFN1                     :
 --------------------------
 Total WFN1 energy  =          -0.9955749433
 1-Electron energy  =          -1.3370348891
 2-Electron energy  =           0.3991673658
 Correlation energy =          -0.2275244184
 DFT XC energy      =           0.0000000000
 Entropy energy     =           0.0000000000
 Nuclear energy     =           0.1698169984

 conventional Hartree-Fock:
 --------------------------
 Total SCF energy  =          -0.9112089576
 2-Electron energy =           0.4835333515

                WFN1 Final Natural orbital energies and occupations
                ---------------------------------------------------

              Alpha       Beta            Alpha       Beta  
            --------    --------        --------    --------
       1      0.0000      0.0000          0.5364      0.5364
       2      0.0000      0.0000          0.4636      0.4636
       3      0.0000      0.0000          0.0000      0.0000
       4      0.0000      0.0000          0.0000      0.0000

             WFN1 Final Correlation function energies and occupations
             --------------------------------------------------------

              Alpha       Beta            Alpha       Beta  
            --------    --------        --------    --------
       1      0.0000      0.0000          1.0000      1.0000
       2      0.0000      0.0000          0.0000      0.0000
       3      0.0000      0.0000          0.0000      0.0000
       4      0.0000      0.0000          0.0000      0.0000

                WFN1 Final alpha-alpha 2-matrix occupation numbers
                --------------------------------------------------


 global array: g_momo1[1:4,1:4],  handle: -990 

            1           2           3           4  
       ----------- ----------- ----------- -----------
   1       0.00000     0.00000     0.00000     0.00000
   2      -0.00000    -0.00000     0.00000     0.00000
   3      -0.00000    -0.00000     0.00000     0.00000
   4       0.00000    -0.00000     0.00000     0.00000

                 WFN1 Final beta-beta 2-matrix occupation numbers
                 ------------------------------------------------


 global array: g_momo2[1:4,1:4],  handle: -989 

            1           2           3           4  
       ----------- ----------- ----------- -----------
   1       0.00000     0.00000     0.00000     0.00000
   2      -0.00000    -0.00000     0.00000     0.00000
   3      -0.00000    -0.00000     0.00000     0.00000
   4       0.00000    -0.00000     0.00000     0.00000

                  WFN1 Final alpha Correlation Function Analysis
                  ----------------------------------------------


 global array: Ca[1:4,1:4],  handle: -972 

                     1                       2                       3                       4  
       ----------------------- ----------------------- ----------------------- -----------------------
   1       0.33019,   -0.65374     0.32566,   -0.58781     0.04091,   -0.00598     0.09884,    0.02342
   2       0.51996,    0.43959    -0.53376,   -0.48745     0.00374,   -0.04451     0.04911,   -0.09740
   3       0.00007,   -0.00020    -0.04122,   -0.02445     0.54637,   -0.59457    -0.37958,    0.44899
   4       0.00011,   -0.00005     0.11646,    0.10030     0.22246,   -0.54293     0.26481,   -0.74966

                   WFN1 Final beta Correlation Function Analysis
                   ---------------------------------------------


 global array: Cb[1:4,1:4],  handle: -971 

                     1                       2                       3                       4  
       ----------------------- ----------------------- ----------------------- -----------------------
   1       0.33019,   -0.65374     0.32566,   -0.58781     0.04091,   -0.00598     0.09884,    0.02342
   2       0.51996,    0.43959    -0.53376,   -0.48745     0.00374,   -0.04451     0.04911,   -0.09740
   3       0.00007,   -0.00020    -0.04122,   -0.02445     0.54637,   -0.59457    -0.37958,    0.44899
   4       0.00011,   -0.00005     0.11646,    0.10030     0.22246,   -0.54293     0.26481,   -0.74966

                     WFN1 Final Alpha Natural Orbital Analysis
                     -----------------------------------------

 Vector    1  Occ=5.364008D-01  E= 0.000000D+00
              MO Center=  0.0D+00,  0.0D+00, -1.7D-07, r^2= 3.2D+00
   Bfn.  Coefficient  Atom+Function         Bfn.  Coefficient  Atom+Function  
  ----- ------------  ---------------      ----- ------------  ---------------
     2     -0.466570  1 H  s                  4     -0.466570  2 H  s          
     1     -0.294040  1 H  s                  3     -0.294040  2 H  s          

 Vector    2  Occ=4.635991D-01  E= 0.000000D+00
              MO Center=  0.0D+00,  0.0D+00,  2.1D-07, r^2= 3.3D+00
   Bfn.  Coefficient  Atom+Function         Bfn.  Coefficient  Atom+Function  
  ----- ------------  ---------------      ----- ------------  ---------------
     2     -0.473442  1 H  s                  4      0.473442  2 H  s          
     1     -0.311842  1 H  s                  3      0.311842  2 H  s          

 Vector    3  Occ=4.412261D-08  E= 0.000000D+00
              MO Center=  0.0D+00,  0.0D+00, -1.9D-01, r^2= 3.4D+00
   Bfn.  Coefficient  Atom+Function         Bfn.  Coefficient  Atom+Function  
  ----- ------------  ---------------      ----- ------------  ---------------
     1     -0.931664  1 H  s                  2      0.819904  1 H  s          
     3     -0.821812  2 H  s                  4      0.714713  2 H  s          

 Vector    4  Occ=1.511846D-08  E= 0.000000D+00
              MO Center=  0.0D+00,  0.0D+00,  1.9D-01, r^2= 3.8D+00
   Bfn.  Coefficient  Atom+Function         Bfn.  Coefficient  Atom+Function  
  ----- ------------  ---------------      ----- ------------  ---------------
     3      0.954329  2 H  s                  4     -0.909445  2 H  s          
     1     -0.847420  1 H  s                  2      0.815880  1 H  s          


                     WFN1 Final Beta Natural Orbital Analysis
                     ----------------------------------------

 Vector    1  Occ=5.364008D-01  E= 0.000000D+00
              MO Center=  0.0D+00,  0.0D+00, -1.7D-07, r^2= 3.2D+00
   Bfn.  Coefficient  Atom+Function         Bfn.  Coefficient  Atom+Function  
  ----- ------------  ---------------      ----- ------------  ---------------
     2     -0.466570  1 H  s                  4     -0.466570  2 H  s          
     1     -0.294040  1 H  s                  3     -0.294040  2 H  s          

 Vector    2  Occ=4.635991D-01  E= 0.000000D+00
              MO Center=  0.0D+00,  0.0D+00,  2.1D-07, r^2= 3.3D+00
   Bfn.  Coefficient  Atom+Function         Bfn.  Coefficient  Atom+Function  
  ----- ------------  ---------------      ----- ------------  ---------------
     2     -0.473442  1 H  s                  4      0.473442  2 H  s          
     1     -0.311842  1 H  s                  3      0.311842  2 H  s          

 Vector    3  Occ=4.412261D-08  E= 0.000000D+00
              MO Center=  0.0D+00,  0.0D+00, -1.9D-01, r^2= 3.4D+00
   Bfn.  Coefficient  Atom+Function         Bfn.  Coefficient  Atom+Function  
  ----- ------------  ---------------      ----- ------------  ---------------
     1     -0.931664  1 H  s                  2      0.819904  1 H  s          
     3     -0.821812  2 H  s                  4      0.714713  2 H  s          

 Vector    4  Occ=1.511846D-08  E= 0.000000D+00
              MO Center=  0.0D+00,  0.0D+00,  1.9D-01, r^2= 3.8D+00
   Bfn.  Coefficient  Atom+Function         Bfn.  Coefficient  Atom+Function  
  ----- ------------  ---------------      ----- ------------  ---------------
     3      0.954329  2 H  s                  4     -0.909445  2 H  s          
     1     -0.847420  1 H  s                  2      0.815880  1 H  s          


 Task  times  cpu:      194.0s     wall:      219.4s
 Summary of allocated global arrays
-----------------------------------
  No active global arrays



                         GA Statistics for process    0
                         ------------------------------

       create   destroy   get      put      acc     scatter   gather  read&inc
calls:   61       61     4.87e+07 2.15e+05 1.66e+05    0        0       11     
number of processes/call 1.00e+00 1.00e+00 1.00e+00 0.00e+00 0.00e+00
bytes total:             6.26e+09 3.91e+07 2.75e+07 0.00e+00 0.00e+00 8.80e+01
bytes remote:            0.00e+00 0.00e+00 0.00e+00 0.00e+00 0.00e+00 0.00e+00
Max memory consumed for GA by this process: 12160 bytes
MA_summarize_allocated_blocks: starting scan ...
MA_summarize_allocated_blocks: scan completed: 0 heap blocks, 0 stack blocks
MA usage statistics:

	allocation statistics:
					      heap	     stack
					      ----	     -----
	current number of blocks	         0	         0
	maximum number of blocks	        19	        17
	current total bytes		         0	         0
	maximum total bytes		   3204328	  22508616
	maximum total K-bytes		      3205	     22509
	maximum total M-bytes		         4	        23


                                NWChem Input Module
                                -------------------





                                     CITATION
                                     --------
                Please cite the following reference when publishing
                           results obtained with NWChem:

                 M. Valiev, E.J. Bylaska, N. Govind, K. Kowalski,
              T.P. Straatsma, H.J.J. van Dam, D. Wang, J. Nieplocha,
                        E. Apra, T.L. Windus, W.A. de Jong
                 "NWChem: a comprehensive and scalable open-source
                  solution for large scale molecular simulations"
                      Comput. Phys. Commun. 181, 1477 (2010)
                           doi:10.1016/j.cpc.2010.04.018

                                      AUTHORS
                                      -------
          E. Apra, E. J. Bylaska, W. A. de Jong, N. Govind, K. Kowalski,
       T. P. Straatsma, M. Valiev, H. J. J. van Dam, D. Wang, T. L. Windus,
        J. Hammond, J. Autschbach, K. Bhaskaran-Nair, J. Brabec, K. Lopata,
    S. A. Fischer, S. Krishnamoorthy, M. Jacquelin, W. Ma, M. Klemm, O. Villa,
      Y. Chen, V. Anisimov, F. Aquino, S. Hirata, M. T. Hackler, V. Konjkov,
      T. Risthaus, M. Malagoli, A. Marenich, A. Otero-de-la-Roza, J. Mullin,
        P. Nichols, R. Peverati, J. Pittner, Y. Zhao, P.-D. Fan, A. Fonari,
       M. Williamson, R. J. Harrison, J. R. Rehr, M. Dupuis, D. Silverstein,
    D. M. A. Smith, J. Nieplocha, V. Tipparaju, M. Krishnan, B. E. Van Kuiken,
        A. Vazquez-Mayagoitia, L. Jensen, M. Swart, Q. Wu, T. Van Voorhis,
     A. A. Auer, M. Nooijen, L. D. Crosby, E. Brown, G. Cisneros, G. I. Fann,
   H. Fruchtl, J. Garza, K. Hirao, R. A. Kendall, J. A. Nichols, K. Tsemekhman,
    K. Wolinski, J. Anchell, D. E. Bernholdt, P. Borowski, T. Clark, D. Clerc,
   H. Dachsel, M. J. O. Deegan, K. Dyall, D. Elwood, E. Glendening, M. Gutowski,
   A. C. Hess, J. Jaffe, B. G. Johnson, J. Ju, R. Kobayashi, R. Kutteh, Z. Lin,
   R. Littlefield, X. Long, B. Meng, T. Nakajima, S. Niu, L. Pollack, M. Rosing,
   K. Glaesemann, G. Sandrone, M. Stave, H. Taylor, G. Thomas, J. H. van Lenthe,
                               A. T. Wong, Z. Zhang.

 Total times  cpu:      194.0s     wall:      219.4s
        0.536401        0.463599        0.000000        0.000000        0.536401        0.463599        0.000000        0.000000