 argument  1 = /home/hvandam/nwchem-1-wfn1/QA/tests/wfn1-h2-6-31g-wfn1c14e/input-wf-6-31g-1.638692.nw



============================== echo of input deck ==============================
echo
start wfn1_dat
geometry units au noautoz
  H 0 0 -.81934600000000000000
  H 0 0  .81934600000000000000
  symmetry cs
end
basis
  H library 6-31g
end
set wfn1:input_vectors "atomic"
set wfn1:solver "monte-carlo"
set wfn1:print_error F
set wfn1:t_initial 0.1
#set wfn1:corr_expr "wfn1_mx"
set wfn1:corr_expr "wfn1c14"
#
set wfn1:fcd00  0.198826
set wfn1:fcd01  0.294438
set wfn1:fcd11  0.247007
set wfn1:fcd05  0.020225
set wfn1:fcd51  -0.098842
set wfn1:fcd55  -0.201236
#
set wfn1:rcd00  0.884548
set wfn1:rcd01  1.211432
set wfn1:rcd11  0.255064
set wfn1:rcd05  0.988291
set wfn1:rcd51  0.535281
set wfn1:rcd55  0.701049
#
set wfn1:fco00  -0.005884
set wfn1:fco01  0.063203
set wfn1:fco11  0.357171
set wfn1:fco05  0.019518
set wfn1:fco51  0.871725
set wfn1:fco55  1.051801
#
set wfn1:rco00  1.033050
set wfn1:rco01  0.850461
set wfn1:rco11  0.110139
set wfn1:rco05  0.985630
set wfn1:rco51  0.139729
set wfn1:rco55  0.918333
#
set wfn1:t_bath 0.0
set wfn1:maxit  20000
task wfn1 energy
================================================================================


                                         
                                         


              Northwest Computational Chemistry Package (NWChem) 6.8
              ------------------------------------------------------


                    Environmental Molecular Sciences Laboratory
                       Pacific Northwest National Laboratory
                                Richland, WA 99352

                              Copyright (c) 1994-2015
                       Pacific Northwest National Laboratory
                            Battelle Memorial Institute

             NWChem is an open-source computational chemistry package
                        distributed under the terms of the
                      Educational Community License (ECL) 2.0
             A copy of the license is included with this distribution
                              in the LICENSE.TXT file

                                  ACKNOWLEDGMENT
                                  --------------

            This software and its documentation were developed at the
            EMSL at Pacific Northwest National Laboratory, a multiprogram
            national laboratory, operated for the U.S. Department of Energy
            by Battelle under Contract Number DE-AC05-76RL01830. Support
            for this work was provided by the Department of Energy Office
            of Biological and Environmental Research, Office of Basic
            Energy Sciences, and the Office of Advanced Scientific Computing.


           Job information
           ---------------

    hostname        = node023
    program         = /home/hvandam/nwchem-1-wfn1/bin/LINUX64/nwchem
    date            = Thu Jun 17 23:47:25 2021

    compiled        = Sun_Jun_13_23:38:55_2021
    source          = /home/hvandam/nwchem-1-wfn1
    nwchem branch   = Development
    nwchem revision = nwchem_on_git-124-gad72d19fff205e319ffbbf2bca37a04ded6ad57b
    ga revision     = nwchem_on_git-124-gad72d19
    use scalapack   = F
    input           = /home/hvandam/nwchem-1-wfn1/QA/tests/wfn1-h2-6-31g-wfn1c14e/input-wf-6-31g-1.638692.nw
    prefix          = wfn1_dat.
    data base       = ./wfn1_dat.db
    status          = startup
    nproc           =        1
    time left       =     -1s



           Memory information
           ------------------

    heap     =   13107200 doubles =    100.0 Mbytes
    stack    =   13107197 doubles =    100.0 Mbytes
    global   =   26214400 doubles =    200.0 Mbytes (distinct from heap & stack)
    total    =   52428797 doubles =    400.0 Mbytes
    verify   = yes
    hardfail = no 


           Directory information
           ---------------------

  0 permanent = .
  0 scratch   = .




                                NWChem Input Module
                                -------------------


 Turning off AUTOSYM since
 SYMMETRY directive was detected!



                             Geometry "geometry" -> ""
                             -------------------------

 Output coordinates in a.u. (scale by  1.000000000 to convert to a.u.)

  No.       Tag          Charge          X              Y              Z
 ---- ---------------- ---------- -------------- -------------- --------------
    1 H                    1.0000     0.00000000     0.00000000    -0.81934600
    2 H                    1.0000     0.00000000     0.00000000     0.81934600

      Atomic Mass 
      ----------- 

      H                  1.007825


 Effective nuclear repulsion energy (a.u.)       0.6102428034

            Nuclear Dipole moment (a.u.) 
            ----------------------------
        X                 Y               Z
 ---------------- ---------------- ----------------
     0.0000000000     0.0000000000     0.0000000000

      Symmetry information
      --------------------

 Group name             Cs        
 Group number              2
 Group order               2
 No. of unique centers     1

      Symmetry unique atoms

     1


            XYZ format geometry
            -------------------
     2
 geometry
 H                     0.00000000     0.00000000    -0.43357926
 H                     0.00000000     0.00000000     0.43357926

                      Basis "ao basis" -> "" (cartesian)
                      -----
  H (Hydrogen)
  ------------
            Exponent  Coefficients 
       -------------- ---------------------------------------------------------
  1 S  1.87311370E+01  0.033495
  1 S  2.82539370E+00  0.234727
  1 S  6.40121700E-01  0.813757

  2 S  1.61277800E-01  1.000000



 Summary of "ao basis" -> "" (cartesian)
 ------------------------------------------------------------------------------
       Tag                 Description            Shells   Functions and Types
 ---------------- ------------------------------  ------  ---------------------
 H                           6-31g                   2        2   2s



                                NWChem WFN1 Module
                                ------------------



          No. of electrons :     2
           Alpha electrons :     1
            Beta electrons :     1
          Charge           :     0
          Spin multiplicity:     1

 HvD: wfn1_inpdft
 HvD: nquad_task =                     1
 HvD: iangquad   =                     0
 HvD: gridtype   = user      
 HvD: leb        =  T
 HvD: radgrid    = murakn    
 HvD: trunc_neigh=  T
 HvD: lssw       =  T
 HvD: whichssw   = erf1    
 HvD: mxnrad     =                     0
 HvD: mxnang     =                     0
 HVD: wfn1: movecs_in  = atomic                                                                                                                                                                                                                                                          
 HVD: wfn1: movecs_out = ./wfn1_dat.movecs                                                                                                                                                                                                                                               

      Superposition of Atomic Density Guess
      -------------------------------------

 Sum of atomic energies:          -0.99646508

      Non-variational initial energy
      ------------------------------

 Total energy =      -0.830886
 1-e energy   =      -2.098564
 2-e energy   =       0.657435
 HOMO         =      -0.522402
 LUMO         =       0.138796

 iteration              energy           error
 ---------              ------           -----
         0         -1.12472638        0.020000
         1         -1.12695447        0.020000
         2         -1.12816110        0.020000
         3         -1.12831868        0.020000
         4         -1.12934369        0.020000
         5         -1.12968118        0.020000
         6         -1.13010214        0.020000
         7         -1.13176514        0.020000
         8         -1.13233500        0.020000
         9         -1.13333431        0.020000
        10         -1.13358470        0.020000
        11         -1.13394106        0.020000
        12         -1.13492969        0.020000
        13         -1.13605293        0.020000
        14         -1.13692726        0.020000
        15         -1.13715881        0.020000
        16         -1.13771233        0.020000
        17         -1.13798870        0.020000
        18         -1.13814684        0.020000
        19         -1.13872441        0.020000
        20         -1.13915266        0.020000
        21         -1.14017845        0.020000
        22         -1.14129174        0.020000
        23         -1.14155868        0.020000
        24         -1.14186351        0.020000
        25         -1.14230318        0.020000
        26         -1.14238273        0.020000
        27         -1.14240308        0.020000
        28         -1.14281607        0.020000
        29         -1.14290582        0.020000
        30         -1.14291908        0.020000
        31         -1.14294419        0.020000
        32         -1.14298979        0.020000
        33         -1.14313919        0.020000
        34         -1.14319503        0.020000
        35         -1.14347671        0.020000
        36         -1.14352533        0.020000
        37         -1.14381008        0.020000
        38         -1.14394086        0.020000
        39         -1.14398803        0.020000
        40         -1.14402895        0.020000
        41         -1.14405580        0.020000
        42         -1.14414886        0.020000
        43         -1.14417283        0.020000
        44         -1.14419669        0.020000
        45         -1.14420656        0.020000
        46         -1.14421263        0.018876
        47         -1.14423352        0.018876
        48         -1.14428523        0.018876
        49         -1.14434035        0.018876
        50         -1.14439453        0.018876
        51         -1.14440568        0.018876
        52         -1.14443594        0.018876
        53         -1.14443934        0.018876
        54         -1.14444080        0.013390
        55         -1.14444099        0.007710
        56         -1.14444610        0.007710
        57         -1.14444705        0.007093
        58         -1.14445628        0.007093
        59         -1.14446390        0.006546
        60         -1.14446400        0.006546
        61         -1.14446586        0.006546
        62         -1.14446596        0.006041
        63         -1.14446603        0.006041
        64         -1.14446777        0.005926
        65         -1.14446984        0.005469
        66         -1.14447079        0.005331
        67         -1.14447089        0.005196
        68         -1.14447326        0.005196
        69         -1.14447564        0.005196
        70         -1.14447781        0.005196
        71         -1.14447805        0.004920
        72         -1.14448074        0.004920
        73         -1.14448170        0.004071
        74         -1.14448235        0.004071
        75         -1.14448248        0.002367
        76         -1.14448262        0.001636
        77         -1.14448270        0.001421
        78         -1.14448274        0.001307
        79         -1.14448274        0.001238
        80         -1.14448278        0.001238
        81         -1.14448313        0.001238
        82         -1.14448315        0.000958
        83         -1.14448326        0.000861
        84         -1.14448333        0.000839
        85         -1.14448341        0.000795
        86         -1.14448342        0.000775
        87         -1.14448354        0.000775
        88         -1.14448356        0.000755
        89         -1.14448359        0.000507
        90         -1.14448359        0.000440
        91         -1.14448360        0.000417
        92         -1.14448361        0.000417
        93         -1.14448362        0.000352
        94         -1.14448362        0.000315
        95         -1.14448362        0.000315
        96         -1.14448363        0.000315
        97         -1.14448364        0.000274
        98         -1.14448364        0.000261
        99         -1.14448364        0.000227
       100         -1.14448364        0.000203
       101         -1.14448365        0.000197
       102         -1.14448365        0.000187
       103         -1.14448365        0.000105
       104         -1.14448365        0.000091
       105         -1.14448365        0.000061
       106         -1.14448365        0.000056
       107         -1.14448365        0.000056
       108         -1.14448365        0.000044
       109         -1.14448365        0.000044
       110         -1.14448365        0.000043
       111         -1.14448365        0.000038
       112         -1.14448365        0.000038
       113         -1.14448365        0.000037
       114         -1.14448365        0.000036
       115         -1.14448365        0.000032
       116         -1.14448365        0.000029
       117         -1.14448365        0.000026
       118         -1.14448365        0.000025
       119         -1.14448365        0.000023
       120         -1.14448365        0.000023
       121         -1.14448365        0.000021
       122         -1.14448365        0.000021
       123         -1.14448365        0.000020
       124         -1.14448365        0.000020
       125         -1.14448365        0.000019
       126         -1.14448365        0.000019
       127         -1.14448365        0.000019
       128         -1.14448365        0.000017
       129         -1.14448365        0.000017
       130         -1.14448365        0.000010
       131         -1.14448365        0.000008
       132         -1.14448365        0.000007
       133         -1.14448365        0.000007
       134         -1.14448365        0.000005
       135         -1.14448365        0.000005
       136         -1.14448365        0.000004
       137         -1.14448365        0.000004
       138         -1.14448365        0.000003
       139         -1.14448365        0.000003
       140         -1.14448365        0.000003
       141         -1.14448365        0.000003
       142         -1.14448365        0.000002
       143         -1.14448365        0.000002
       144         -1.14448365        0.000002
       145         -1.14448365        0.000002
       146         -1.14448365        0.000001
       147         -1.14448365        0.000001
       148         -1.14448365        0.000001
       149         -1.14448365        0.000001
       150         -1.14448365        0.000001

 Reached Convergence

 WFN1                     :
 --------------------------
 Total WFN1 energy  =          -1.1444836522
 1-Electron energy  =          -2.2993274288
 2-Electron energy  =           0.6057076727
 Correlation energy =          -0.0611066995
 DFT XC energy      =           0.0000000000
 Entropy energy     =           0.0000000000
 Nuclear energy     =           0.6102428034

 conventional Hartree-Fock:
 --------------------------
 Total SCF energy  =          -1.1172293781
 2-Electron energy =           0.6329619468

                WFN1 Final Natural orbital energies and occupations
                ---------------------------------------------------

              Alpha       Beta            Alpha       Beta  
            --------    --------        --------    --------
       1      0.0000      0.0000          0.9619      0.9619
       2      0.0000      0.0000          0.0381      0.0381
       3      0.0000      0.0000          0.0000      0.0000
       4      0.0000      0.0000          0.0000      0.0000

             WFN1 Final Correlation function energies and occupations
             --------------------------------------------------------

              Alpha       Beta            Alpha       Beta  
            --------    --------        --------    --------
       1      0.0000      0.0000          1.0000      1.0000
       2      0.0000      0.0000          0.0000      0.0000
       3      0.0000      0.0000          0.0000      0.0000
       4      0.0000      0.0000          0.0000      0.0000

                WFN1 Final alpha-alpha 2-matrix occupation numbers
                --------------------------------------------------


 global array: g_momo1[1:4,1:4],  handle: -990 

            1           2           3           4  
       ----------- ----------- ----------- -----------
   1       0.00000     0.00000     0.00000     0.00000
   2       0.00000    -0.00000    -0.00000     0.00000
   3       0.00000    -0.00000    -0.00000     0.00000
   4       0.00000     0.00000     0.00000     0.00000

                 WFN1 Final beta-beta 2-matrix occupation numbers
                 ------------------------------------------------


 global array: g_momo2[1:4,1:4],  handle: -989 

            1           2           3           4  
       ----------- ----------- ----------- -----------
   1       0.00000     0.00000     0.00000     0.00000
   2       0.00000    -0.00000    -0.00000     0.00000
   3       0.00000    -0.00000    -0.00000     0.00000
   4       0.00000     0.00000     0.00000     0.00000

                  WFN1 Final alpha Correlation Function Analysis
                  ----------------------------------------------


 global array: Ca[1:4,1:4],  handle: -976 

                     1                       2                       3                       4  
       ----------------------- ----------------------- ----------------------- -----------------------
   1      -0.52566,    0.82800     0.14516,   -0.12819    -0.00684,   -0.01755    -0.00412,    0.01480
   2       0.19120,    0.03922     0.86133,    0.45288     0.07019,   -0.06350    -0.07689,    0.00710
   3       0.00000,    0.00001     0.07711,   -0.06789     0.33053,    0.93396    -0.01371,   -0.08788
   4       0.00000,   -0.00000     0.06844,   -0.01649     0.05336,   -0.07941     0.72083,   -0.68286

                   WFN1 Final beta Correlation Function Analysis
                   ---------------------------------------------


 global array: Cb[1:4,1:4],  handle: -975 

                     1                       2                       3                       4  
       ----------------------- ----------------------- ----------------------- -----------------------
   1      -0.52566,    0.82800     0.14516,   -0.12819    -0.00684,   -0.01755    -0.00412,    0.01480
   2       0.19120,    0.03922     0.86133,    0.45288     0.07019,   -0.06350    -0.07689,    0.00710
   3       0.00000,    0.00001     0.07711,   -0.06789     0.33053,    0.93396    -0.01371,   -0.08788
   4       0.00000,   -0.00000     0.06844,   -0.01649     0.05336,   -0.07941     0.72083,   -0.68286

                     WFN1 Final Alpha Natural Orbital Analysis
                     -----------------------------------------

 Vector    1  Occ=9.619044D-01  E= 0.000000D+00
              MO Center=  0.0D+00,  0.0D+00, -1.1D-07, r^2= 8.1D-01
   Bfn.  Coefficient  Atom+Function         Bfn.  Coefficient  Atom+Function  
  ----- ------------  ---------------      ----- ------------  ---------------
     1      0.317583  1 H  s                  3      0.317583  2 H  s          
     2      0.293258  1 H  s                  4      0.293258  2 H  s          

 Vector    2  Occ=3.809555D-02  E= 0.000000D+00
              MO Center=  0.0D+00,  0.0D+00, -9.7D-08, r^2= 1.6D+00
   Bfn.  Coefficient  Atom+Function         Bfn.  Coefficient  Atom+Function  
  ----- ------------  ---------------      ----- ------------  ---------------
     2      1.189482  1 H  s                  4     -1.189482  2 H  s          
     1      0.329826  1 H  s                  3     -0.329826  2 H  s          

 Vector    3  Occ=7.917660D-11  E= 0.000000D+00
              MO Center=  0.0D+00,  0.0D+00, -7.1D-02, r^2= 1.6D+00
   Bfn.  Coefficient  Atom+Function         Bfn.  Coefficient  Atom+Function  
  ----- ------------  ---------------      ----- ------------  ---------------
     1      0.868879  1 H  s                  2     -0.778384  1 H  s          
     3      0.760445  2 H  s                  4     -0.614407  2 H  s          

 Vector    4  Occ=7.388612D-12  E= 0.000000D+00
              MO Center=  0.0D+00,  0.0D+00,  7.1D-02, r^2= 1.6D+00
   Bfn.  Coefficient  Atom+Function         Bfn.  Coefficient  Atom+Function  
  ----- ------------  ---------------      ----- ------------  ---------------
     4     -1.540520  2 H  s                  2      1.464519  1 H  s          
     3      1.038035  2 H  s                  1     -0.949127  1 H  s          


                     WFN1 Final Beta Natural Orbital Analysis
                     ----------------------------------------

 Vector    1  Occ=9.619044D-01  E= 0.000000D+00
              MO Center=  0.0D+00,  0.0D+00, -1.1D-07, r^2= 8.1D-01
   Bfn.  Coefficient  Atom+Function         Bfn.  Coefficient  Atom+Function  
  ----- ------------  ---------------      ----- ------------  ---------------
     1      0.317583  1 H  s                  3      0.317583  2 H  s          
     2      0.293258  1 H  s                  4      0.293258  2 H  s          

 Vector    2  Occ=3.809555D-02  E= 0.000000D+00
              MO Center=  0.0D+00,  0.0D+00, -9.7D-08, r^2= 1.6D+00
   Bfn.  Coefficient  Atom+Function         Bfn.  Coefficient  Atom+Function  
  ----- ------------  ---------------      ----- ------------  ---------------
     2      1.189482  1 H  s                  4     -1.189482  2 H  s          
     1      0.329826  1 H  s                  3     -0.329826  2 H  s          

 Vector    3  Occ=7.917660D-11  E= 0.000000D+00
              MO Center=  0.0D+00,  0.0D+00, -7.1D-02, r^2= 1.6D+00
   Bfn.  Coefficient  Atom+Function         Bfn.  Coefficient  Atom+Function  
  ----- ------------  ---------------      ----- ------------  ---------------
     1      0.868879  1 H  s                  2     -0.778384  1 H  s          
     3      0.760445  2 H  s                  4     -0.614407  2 H  s          

 Vector    4  Occ=7.388612D-12  E= 0.000000D+00
              MO Center=  0.0D+00,  0.0D+00,  7.1D-02, r^2= 1.6D+00
   Bfn.  Coefficient  Atom+Function         Bfn.  Coefficient  Atom+Function  
  ----- ------------  ---------------      ----- ------------  ---------------
     4     -1.540520  2 H  s                  2      1.464519  1 H  s          
     3      1.038035  2 H  s                  1     -0.949127  1 H  s          


 Task  times  cpu:      200.8s     wall:      226.2s
 Summary of allocated global arrays
-----------------------------------
  No active global arrays



                         GA Statistics for process    0
                         ------------------------------

       create   destroy   get      put      acc     scatter   gather  read&inc
calls:   61       61     4.92e+07 2.18e+05 1.67e+05    0        0       11     
number of processes/call 1.00e+00 1.00e+00 1.00e+00 0.00e+00 0.00e+00
bytes total:             6.34e+09 3.96e+07 2.79e+07 0.00e+00 0.00e+00 8.80e+01
bytes remote:            0.00e+00 0.00e+00 0.00e+00 0.00e+00 0.00e+00 0.00e+00
Max memory consumed for GA by this process: 12160 bytes
MA_summarize_allocated_blocks: starting scan ...
MA_summarize_allocated_blocks: scan completed: 0 heap blocks, 0 stack blocks
MA usage statistics:

	allocation statistics:
					      heap	     stack
					      ----	     -----
	current number of blocks	         0	         0
	maximum number of blocks	        19	        17
	current total bytes		         0	         0
	maximum total bytes		   3204328	  22508616
	maximum total K-bytes		      3205	     22509
	maximum total M-bytes		         4	        23


                                NWChem Input Module
                                -------------------





                                     CITATION
                                     --------
                Please cite the following reference when publishing
                           results obtained with NWChem:

                 M. Valiev, E.J. Bylaska, N. Govind, K. Kowalski,
              T.P. Straatsma, H.J.J. van Dam, D. Wang, J. Nieplocha,
                        E. Apra, T.L. Windus, W.A. de Jong
                 "NWChem: a comprehensive and scalable open-source
                  solution for large scale molecular simulations"
                      Comput. Phys. Commun. 181, 1477 (2010)
                           doi:10.1016/j.cpc.2010.04.018

                                      AUTHORS
                                      -------
          E. Apra, E. J. Bylaska, W. A. de Jong, N. Govind, K. Kowalski,
       T. P. Straatsma, M. Valiev, H. J. J. van Dam, D. Wang, T. L. Windus,
        J. Hammond, J. Autschbach, K. Bhaskaran-Nair, J. Brabec, K. Lopata,
    S. A. Fischer, S. Krishnamoorthy, M. Jacquelin, W. Ma, M. Klemm, O. Villa,
      Y. Chen, V. Anisimov, F. Aquino, S. Hirata, M. T. Hackler, V. Konjkov,
      T. Risthaus, M. Malagoli, A. Marenich, A. Otero-de-la-Roza, J. Mullin,
        P. Nichols, R. Peverati, J. Pittner, Y. Zhao, P.-D. Fan, A. Fonari,
       M. Williamson, R. J. Harrison, J. R. Rehr, M. Dupuis, D. Silverstein,
    D. M. A. Smith, J. Nieplocha, V. Tipparaju, M. Krishnan, B. E. Van Kuiken,
        A. Vazquez-Mayagoitia, L. Jensen, M. Swart, Q. Wu, T. Van Voorhis,
     A. A. Auer, M. Nooijen, L. D. Crosby, E. Brown, G. Cisneros, G. I. Fann,
   H. Fruchtl, J. Garza, K. Hirao, R. A. Kendall, J. A. Nichols, K. Tsemekhman,
    K. Wolinski, J. Anchell, D. E. Bernholdt, P. Borowski, T. Clark, D. Clerc,
   H. Dachsel, M. J. O. Deegan, K. Dyall, D. Elwood, E. Glendening, M. Gutowski,
   A. C. Hess, J. Jaffe, B. G. Johnson, J. Ju, R. Kobayashi, R. Kutteh, Z. Lin,
   R. Littlefield, X. Long, B. Meng, T. Nakajima, S. Niu, L. Pollack, M. Rosing,
   K. Glaesemann, G. Sandrone, M. Stave, H. Taylor, G. Thomas, J. H. van Lenthe,
                               A. T. Wong, Z. Zhang.

 Total times  cpu:      200.8s     wall:      226.2s
        0.961904        0.038096        0.000000        0.000000        0.961904        0.038096        0.000000        0.000000