 argument  1 = /home/hvandam/nwchem-1-wfn1/QA/tests/wfn1-h2-6-31g-wfn1c14e/input-wf-6-31g-8.888692.nw



============================== echo of input deck ==============================
echo
start wfn1_dat
geometry units au noautoz
  H 0 0 -4.44434600000000000000
  H 0 0  4.44434600000000000000
  symmetry cs
end
basis
  H library 6-31g
end
set wfn1:input_vectors "atomic"
set wfn1:solver "monte-carlo"
set wfn1:print_error F
set wfn1:t_initial 0.1
#set wfn1:corr_expr "wfn1_mx"
set wfn1:corr_expr "wfn1c14"
#
set wfn1:fcd00  0.198826
set wfn1:fcd01  0.294438
set wfn1:fcd11  0.247007
set wfn1:fcd05  0.020225
set wfn1:fcd51  -0.098842
set wfn1:fcd55  -0.201236
#
set wfn1:rcd00  0.884548
set wfn1:rcd01  1.211432
set wfn1:rcd11  0.255064
set wfn1:rcd05  0.988291
set wfn1:rcd51  0.535281
set wfn1:rcd55  0.701049
#
set wfn1:fco00  -0.005884
set wfn1:fco01  0.063203
set wfn1:fco11  0.357171
set wfn1:fco05  0.019518
set wfn1:fco51  0.871725
set wfn1:fco55  1.051801
#
set wfn1:rco00  1.033050
set wfn1:rco01  0.850461
set wfn1:rco11  0.110139
set wfn1:rco05  0.985630
set wfn1:rco51  0.139729
set wfn1:rco55  0.918333
#
set wfn1:t_bath 0.0
set wfn1:maxit  20000
task wfn1 energy
================================================================================


                                         
                                         


              Northwest Computational Chemistry Package (NWChem) 6.8
              ------------------------------------------------------


                    Environmental Molecular Sciences Laboratory
                       Pacific Northwest National Laboratory
                                Richland, WA 99352

                              Copyright (c) 1994-2015
                       Pacific Northwest National Laboratory
                            Battelle Memorial Institute

             NWChem is an open-source computational chemistry package
                        distributed under the terms of the
                      Educational Community License (ECL) 2.0
             A copy of the license is included with this distribution
                              in the LICENSE.TXT file

                                  ACKNOWLEDGMENT
                                  --------------

            This software and its documentation were developed at the
            EMSL at Pacific Northwest National Laboratory, a multiprogram
            national laboratory, operated for the U.S. Department of Energy
            by Battelle under Contract Number DE-AC05-76RL01830. Support
            for this work was provided by the Department of Energy Office
            of Biological and Environmental Research, Office of Basic
            Energy Sciences, and the Office of Advanced Scientific Computing.


           Job information
           ---------------

    hostname        = node023
    program         = /home/hvandam/nwchem-1-wfn1/bin/LINUX64/nwchem
    date            = Thu Jun 17 23:51:25 2021

    compiled        = Sun_Jun_13_23:38:55_2021
    source          = /home/hvandam/nwchem-1-wfn1
    nwchem branch   = Development
    nwchem revision = nwchem_on_git-124-gad72d19fff205e319ffbbf2bca37a04ded6ad57b
    ga revision     = nwchem_on_git-124-gad72d19
    use scalapack   = F
    input           = /home/hvandam/nwchem-1-wfn1/QA/tests/wfn1-h2-6-31g-wfn1c14e/input-wf-6-31g-8.888692.nw
    prefix          = wfn1_dat.
    data base       = ./wfn1_dat.db
    status          = startup
    nproc           =        1
    time left       =     -1s



           Memory information
           ------------------

    heap     =   13107194 doubles =    100.0 Mbytes
    stack    =   13107199 doubles =    100.0 Mbytes
    global   =   26214400 doubles =    200.0 Mbytes (distinct from heap & stack)
    total    =   52428793 doubles =    400.0 Mbytes
    verify   = yes
    hardfail = no 


           Directory information
           ---------------------

  0 permanent = .
  0 scratch   = .




                                NWChem Input Module
                                -------------------


 Turning off AUTOSYM since
 SYMMETRY directive was detected!



                             Geometry "geometry" -> ""
                             -------------------------

 Output coordinates in a.u. (scale by  1.000000000 to convert to a.u.)

  No.       Tag          Charge          X              Y              Z
 ---- ---------------- ---------- -------------- -------------- --------------
    1 H                    1.0000     0.00000000     0.00000000    -4.44434600
    2 H                    1.0000     0.00000000     0.00000000     4.44434600

      Atomic Mass 
      ----------- 

      H                  1.007825


 Effective nuclear repulsion energy (a.u.)       0.1125024919

            Nuclear Dipole moment (a.u.) 
            ----------------------------
        X                 Y               Z
 ---------------- ---------------- ----------------
     0.0000000000     0.0000000000     0.0000000000

      Symmetry information
      --------------------

 Group name             Cs        
 Group number              2
 Group order               2
 No. of unique centers     1

      Symmetry unique atoms

     1


            XYZ format geometry
            -------------------
     2
 geometry
 H                     0.00000000     0.00000000    -2.35184679
 H                     0.00000000     0.00000000     2.35184679

                      Basis "ao basis" -> "" (cartesian)
                      -----
  H (Hydrogen)
  ------------
            Exponent  Coefficients 
       -------------- ---------------------------------------------------------
  1 S  1.87311370E+01  0.033495
  1 S  2.82539370E+00  0.234727
  1 S  6.40121700E-01  0.813757

  2 S  1.61277800E-01  1.000000



 Summary of "ao basis" -> "" (cartesian)
 ------------------------------------------------------------------------------
       Tag                 Description            Shells   Functions and Types
 ---------------- ------------------------------  ------  ---------------------
 H                           6-31g                   2        2   2s



                                NWChem WFN1 Module
                                ------------------



          No. of electrons :     2
           Alpha electrons :     1
            Beta electrons :     1
          Charge           :     0
          Spin multiplicity:     1

 HvD: wfn1_inpdft
 HvD: nquad_task =                     1
 HvD: iangquad   =                     0
 HvD: gridtype   = user      
 HvD: leb        =  T
 HvD: radgrid    = murakn    
 HvD: trunc_neigh=  T
 HvD: lssw       =  T
 HvD: whichssw   = erf1    
 HvD: mxnrad     =                     0
 HvD: mxnang     =                     0
 HVD: wfn1: movecs_in  = atomic                                                                                                                                                                                                                                                          
 HVD: wfn1: movecs_out = ./wfn1_dat.movecs                                                                                                                                                                                                                                               

      Superposition of Atomic Density Guess
      -------------------------------------

 Sum of atomic energies:          -0.99646508

      Non-variational initial energy
      ------------------------------

 Total energy =      -0.682110
 1-e energy   =      -1.221471
 2-e energy   =       0.426858
 HOMO         =      -0.191985
 LUMO         =      -0.190387

 iteration              energy           error
 ---------              ------           -----
         0         -0.98464318        0.020000
         1         -0.98606479        0.020000
         2         -0.98661022        0.020000
         3         -0.98792346        0.020000
         4         -0.98871686        0.020000
         5         -0.98989900        0.020000
         6         -0.99039806        0.020000
         7         -0.99073773        0.020000
         8         -0.99118776        0.020000
         9         -0.99225964        0.020000
        10         -0.99228863        0.020000
        11         -0.99243673        0.020000
        12         -0.99257387        0.020000
        13         -0.99302336        0.020000
        14         -0.99367152        0.020000
        15         -0.99393580        0.020000
        16         -0.99401543        0.020000
        17         -0.99407884        0.020000
        18         -0.99419021        0.020000
        19         -0.99450432        0.020000
        20         -0.99453627        0.020000
        21         -0.99477822        0.020000
        22         -0.99484950        0.020000
        23         -0.99487556        0.020000
        24         -0.99521943        0.020000
        25         -0.99538118        0.020000
        26         -0.99539537        0.020000
        27         -0.99551483        0.020000
        28         -0.99586833        0.020000
        29         -0.99601980        0.020000
        30         -0.99612816        0.020000
        31         -0.99614287        0.020000
        32         -0.99624497        0.020000
        33         -0.99630227        0.020000
        34         -0.99649103        0.020000
        35         -0.99660755        0.020000
        36         -0.99660770        0.019934
        37         -0.99661336        0.019934
        38         -0.99662090        0.012967
        39         -0.99662143        0.012967
        40         -0.99664038        0.012318
        41         -0.99664213        0.010425
        42         -0.99666378        0.009591
        43         -0.99667108        0.009081
        44         -0.99667108        0.006825
        45         -0.99667563        0.005758
        46         -0.99667643        0.005612
        47         -0.99667712        0.004734
        48         -0.99667806        0.004231
        49         -0.99667848        0.004231
        50         -0.99667869        0.004124
        51         -0.99668095        0.003698
        52         -0.99668106        0.003305
        53         -0.99668109        0.002631
        54         -0.99668109        0.002631
        55         -0.99668135        0.002565
        56         -0.99668228        0.002508
        57         -0.99668246        0.002116
        58         -0.99668264        0.001545
        59         -0.99668276        0.001381
        60         -0.99668277        0.000979
        61         -0.99668286        0.000955
        62         -0.99668287        0.000805
        63         -0.99668287        0.000588
        64         -0.99668290        0.000468
        65         -0.99668291        0.000456
        66         -0.99668292        0.000432
        67         -0.99668292        0.000325
        68         -0.99668292        0.000217
        69         -0.99668292        0.000206
        70         -0.99668293        0.000189
        71         -0.99668293        0.000179
        72         -0.99668293        0.000156
        73         -0.99668293        0.000120
        74         -0.99668293        0.000120
        75         -0.99668293        0.000105
        76         -0.99668293        0.000102
        77         -0.99668293        0.000102
        78         -0.99668293        0.000068
        79         -0.99668293        0.000067
        80         -0.99668293        0.000046
        81         -0.99668293        0.000045
        82         -0.99668293        0.000045
        83         -0.99668293        0.000044
        84         -0.99668293        0.000044
        85         -0.99668293        0.000038
        86         -0.99668293        0.000038
        87         -0.99668293        0.000022
        88         -0.99668293        0.000020
        89         -0.99668293        0.000017
        90         -0.99668293        0.000017
        91         -0.99668293        0.000017
        92         -0.99668293        0.000013
        93         -0.99668293        0.000011
        94         -0.99668293        0.000011
        95         -0.99668293        0.000009
        96         -0.99668293        0.000009
        97         -0.99668293        0.000009
        98         -0.99668293        0.000008
        99         -0.99668293        0.000004
       100         -0.99668293        0.000003
       101         -0.99668293        0.000002
       102         -0.99668293        0.000002
       103         -0.99668293        0.000002
       104         -0.99668293        0.000001
       105         -0.99668293        0.000001
       106         -0.99668293        0.000001
       107         -0.99668293        0.000001

 Reached Convergence

 WFN1                     :
 --------------------------
 Total WFN1 energy  =          -0.9966829300
 1-Electron energy  =          -1.2214721269
 2-Electron energy  =           0.3709696801
 Correlation energy =          -0.2586829752
 DFT XC energy      =           0.0000000000
 Entropy energy     =           0.0000000000
 Nuclear energy     =           0.1125024919

 conventional Hartree-Fock:
 --------------------------
 Total SCF energy  =          -0.9404319193
 2-Electron energy =           0.4272206908

                WFN1 Final Natural orbital energies and occupations
                ---------------------------------------------------

              Alpha       Beta            Alpha       Beta  
            --------    --------        --------    --------
       1      0.0000      0.0000          0.5014      0.5014
       2      0.0000      0.0000          0.4986      0.4986
       3      0.0000      0.0000          0.0000      0.0000
       4      0.0000      0.0000          0.0000      0.0000

             WFN1 Final Correlation function energies and occupations
             --------------------------------------------------------

              Alpha       Beta            Alpha       Beta  
            --------    --------        --------    --------
       1      0.0000      0.0000          1.0000      1.0000
       2      0.0000      0.0000          0.0000      0.0000
       3      0.0000      0.0000          0.0000      0.0000
       4      0.0000      0.0000          0.0000      0.0000

                WFN1 Final alpha-alpha 2-matrix occupation numbers
                --------------------------------------------------


 global array: g_momo1[1:4,1:4],  handle: -990 

            1           2           3           4  
       ----------- ----------- ----------- -----------
   1       0.00000     0.00000     0.00000     0.00000
   2       0.00000    -0.00000    -0.00000     0.00000
   3       0.00000    -0.00000    -0.00000    -0.00000
   4       0.00000     0.00000    -0.00000     0.00000

                 WFN1 Final beta-beta 2-matrix occupation numbers
                 ------------------------------------------------


 global array: g_momo2[1:4,1:4],  handle: -989 

            1           2           3           4  
       ----------- ----------- ----------- -----------
   1       0.00000     0.00000     0.00000     0.00000
   2       0.00000    -0.00000    -0.00000     0.00000
   3       0.00000    -0.00000    -0.00000    -0.00000
   4       0.00000     0.00000    -0.00000     0.00000

                  WFN1 Final alpha Correlation Function Analysis
                  ----------------------------------------------


 global array: Ca[1:4,1:4],  handle: -972 

                     1                       2                       3                       4  
       ----------------------- ----------------------- ----------------------- -----------------------
   1      -0.53226,   -0.46698    -0.52899,   -0.45970     0.01886,    0.05225    -0.06339,   -0.01921
   2       0.69947,    0.09680    -0.69655,   -0.09304     0.04483,    0.03334    -0.06367,    0.01880
   3       0.00010,    0.00005     0.01738,    0.05267    -0.69614,    0.05130    -0.71137,    0.06034
   4      -0.00006,    0.00009     0.07760,   -0.07684     0.50875,   -0.49772    -0.49641,    0.48486

                   WFN1 Final beta Correlation Function Analysis
                   ---------------------------------------------


 global array: Cb[1:4,1:4],  handle: -971 

                     1                       2                       3                       4  
       ----------------------- ----------------------- ----------------------- -----------------------
   1      -0.53226,   -0.46698    -0.52899,   -0.45970     0.01886,    0.05225    -0.06339,   -0.01921
   2       0.69947,    0.09680    -0.69655,   -0.09304     0.04483,    0.03334    -0.06367,    0.01880
   3       0.00010,    0.00005     0.01738,    0.05267    -0.69614,    0.05130    -0.71137,    0.06034
   4      -0.00006,    0.00009     0.07760,   -0.07684     0.50875,   -0.49772    -0.49641,    0.48486

                     WFN1 Final Alpha Natural Orbital Analysis
                     -----------------------------------------

 Vector    1  Occ=5.013716D-01  E= 0.000000D+00
              MO Center=  0.0D+00,  0.0D+00,  5.9D-07, r^2= 6.3D+00
   Bfn.  Coefficient  Atom+Function         Bfn.  Coefficient  Atom+Function  
  ----- ------------  ---------------      ----- ------------  ---------------
     2     -0.470044  1 H  s                  4     -0.470045  2 H  s          
     1     -0.302471  1 H  s                  3     -0.302471  2 H  s          

 Vector    2  Occ=4.986283D-01  E= 0.000000D+00
              MO Center=  0.0D+00,  0.0D+00, -5.9D-07, r^2= 6.3D+00
   Bfn.  Coefficient  Atom+Function         Bfn.  Coefficient  Atom+Function  
  ----- ------------  ---------------      ----- ------------  ---------------
     2     -0.469454  1 H  s                  4      0.469454  2 H  s          
     1     -0.303743  1 H  s                  3      0.303744  2 H  s          

 Vector    3  Occ=1.277212D-08  E= 0.000000D+00
              MO Center=  0.0D+00,  0.0D+00, -7.3D-02, r^2= 6.7D+00
   Bfn.  Coefficient  Atom+Function         Bfn.  Coefficient  Atom+Function  
  ----- ------------  ---------------      ----- ------------  ---------------
     1      0.902329  1 H  s                  3      0.874854  2 H  s          
     2     -0.824174  1 H  s                  4     -0.798994  2 H  s          

 Vector    4  Occ=1.206729D-08  E= 0.000000D+00
              MO Center=  0.0D+00,  0.0D+00,  7.3D-02, r^2= 6.7D+00
   Bfn.  Coefficient  Atom+Function         Bfn.  Coefficient  Atom+Function  
  ----- ------------  ---------------      ----- ------------  ---------------
     3      0.903128  2 H  s                  1     -0.875679  1 H  s          
     4     -0.827677  2 H  s                  2      0.802606  1 H  s          


                     WFN1 Final Beta Natural Orbital Analysis
                     ----------------------------------------

 Vector    1  Occ=5.013716D-01  E= 0.000000D+00
              MO Center=  0.0D+00,  0.0D+00,  5.9D-07, r^2= 6.3D+00
   Bfn.  Coefficient  Atom+Function         Bfn.  Coefficient  Atom+Function  
  ----- ------------  ---------------      ----- ------------  ---------------
     2     -0.470044  1 H  s                  4     -0.470045  2 H  s          
     1     -0.302471  1 H  s                  3     -0.302471  2 H  s          

 Vector    2  Occ=4.986283D-01  E= 0.000000D+00
              MO Center=  0.0D+00,  0.0D+00, -5.9D-07, r^2= 6.3D+00
   Bfn.  Coefficient  Atom+Function         Bfn.  Coefficient  Atom+Function  
  ----- ------------  ---------------      ----- ------------  ---------------
     2     -0.469454  1 H  s                  4      0.469454  2 H  s          
     1     -0.303743  1 H  s                  3      0.303744  2 H  s          

 Vector    3  Occ=1.277212D-08  E= 0.000000D+00
              MO Center=  0.0D+00,  0.0D+00, -7.3D-02, r^2= 6.7D+00
   Bfn.  Coefficient  Atom+Function         Bfn.  Coefficient  Atom+Function  
  ----- ------------  ---------------      ----- ------------  ---------------
     1      0.902329  1 H  s                  3      0.874854  2 H  s          
     2     -0.824174  1 H  s                  4     -0.798994  2 H  s          

 Vector    4  Occ=1.206729D-08  E= 0.000000D+00
              MO Center=  0.0D+00,  0.0D+00,  7.3D-02, r^2= 6.7D+00
   Bfn.  Coefficient  Atom+Function         Bfn.  Coefficient  Atom+Function  
  ----- ------------  ---------------      ----- ------------  ---------------
     3      0.903128  2 H  s                  1     -0.875679  1 H  s          
     4     -0.827677  2 H  s                  2      0.802606  1 H  s          


 Task  times  cpu:      180.1s     wall:      203.9s
 Summary of allocated global arrays
-----------------------------------
  No active global arrays



                         GA Statistics for process    0
                         ------------------------------

       create   destroy   get      put      acc     scatter   gather  read&inc
calls:   61       61     4.67e+07 2.07e+05 1.59e+05    0        0       11     
number of processes/call 1.00e+00 1.00e+00 1.00e+00 0.00e+00 0.00e+00
bytes total:             6.02e+09 3.76e+07 2.65e+07 0.00e+00 0.00e+00 8.80e+01
bytes remote:            0.00e+00 0.00e+00 0.00e+00 0.00e+00 0.00e+00 0.00e+00
Max memory consumed for GA by this process: 12160 bytes
MA_summarize_allocated_blocks: starting scan ...
MA_summarize_allocated_blocks: scan completed: 0 heap blocks, 0 stack blocks
MA usage statistics:

	allocation statistics:
					      heap	     stack
					      ----	     -----
	current number of blocks	         0	         0
	maximum number of blocks	        19	        17
	current total bytes		         0	         0
	maximum total bytes		   3204376	  22508632
	maximum total K-bytes		      3205	     22509
	maximum total M-bytes		         4	        23


                                NWChem Input Module
                                -------------------





                                     CITATION
                                     --------
                Please cite the following reference when publishing
                           results obtained with NWChem:

                 M. Valiev, E.J. Bylaska, N. Govind, K. Kowalski,
              T.P. Straatsma, H.J.J. van Dam, D. Wang, J. Nieplocha,
                        E. Apra, T.L. Windus, W.A. de Jong
                 "NWChem: a comprehensive and scalable open-source
                  solution for large scale molecular simulations"
                      Comput. Phys. Commun. 181, 1477 (2010)
                           doi:10.1016/j.cpc.2010.04.018

                                      AUTHORS
                                      -------
          E. Apra, E. J. Bylaska, W. A. de Jong, N. Govind, K. Kowalski,
       T. P. Straatsma, M. Valiev, H. J. J. van Dam, D. Wang, T. L. Windus,
        J. Hammond, J. Autschbach, K. Bhaskaran-Nair, J. Brabec, K. Lopata,
    S. A. Fischer, S. Krishnamoorthy, M. Jacquelin, W. Ma, M. Klemm, O. Villa,
      Y. Chen, V. Anisimov, F. Aquino, S. Hirata, M. T. Hackler, V. Konjkov,
      T. Risthaus, M. Malagoli, A. Marenich, A. Otero-de-la-Roza, J. Mullin,
        P. Nichols, R. Peverati, J. Pittner, Y. Zhao, P.-D. Fan, A. Fonari,
       M. Williamson, R. J. Harrison, J. R. Rehr, M. Dupuis, D. Silverstein,
    D. M. A. Smith, J. Nieplocha, V. Tipparaju, M. Krishnan, B. E. Van Kuiken,
        A. Vazquez-Mayagoitia, L. Jensen, M. Swart, Q. Wu, T. Van Voorhis,
     A. A. Auer, M. Nooijen, L. D. Crosby, E. Brown, G. Cisneros, G. I. Fann,
   H. Fruchtl, J. Garza, K. Hirao, R. A. Kendall, J. A. Nichols, K. Tsemekhman,
    K. Wolinski, J. Anchell, D. E. Bernholdt, P. Borowski, T. Clark, D. Clerc,
   H. Dachsel, M. J. O. Deegan, K. Dyall, D. Elwood, E. Glendening, M. Gutowski,
   A. C. Hess, J. Jaffe, B. G. Johnson, J. Ju, R. Kobayashi, R. Kutteh, Z. Lin,
   R. Littlefield, X. Long, B. Meng, T. Nakajima, S. Niu, L. Pollack, M. Rosing,
   K. Glaesemann, G. Sandrone, M. Stave, H. Taylor, G. Thomas, J. H. van Lenthe,
                               A. T. Wong, Z. Zhang.

 Total times  cpu:      180.1s     wall:      203.9s
        0.501372        0.498628        0.000000        0.000000        0.501372        0.498628        0.000000        0.000000