 argument  1 = /home/hvandam/nwchem-1/QA/tests/1h9t/1h9t_md.nw



============================== echo of input deck ==============================
echo
start md_dat

prepare
  system 1h9t_md
  new_rst
  new_top new_seq
  source start_md_neutral.pdb
  #solvent name HOH model spce
  #solvate
  vacuo
end

#task prepare

set sp:adios_mode BPFile
set sp:adios_mode Null

md
  msa 10000
  system 1h9t_md
  leapfrog
  step 0.002 equil 0 data 15000
  #isotherm 298.15 trelax 0.1
  isobar
  noshake
  print step 10 extra out6
  record coord 1 ascii
  veladj 7715 8958 0.0  0.03125 0.0
end

task md dynamics
================================================================================


                                         
                                         


              Northwest Computational Chemistry Package (NWChem) 6.8
              ------------------------------------------------------


                    Environmental Molecular Sciences Laboratory
                       Pacific Northwest National Laboratory
                                Richland, WA 99352

                              Copyright (c) 1994-2018
                       Pacific Northwest National Laboratory
                            Battelle Memorial Institute

             NWChem is an open-source computational chemistry package
                        distributed under the terms of the
                      Educational Community License (ECL) 2.0
             A copy of the license is included with this distribution
                              in the LICENSE.TXT file

                                  ACKNOWLEDGMENT
                                  --------------

            This software and its documentation were developed at the
            EMSL at Pacific Northwest National Laboratory, a multiprogram
            national laboratory, operated for the U.S. Department of Energy
            by Battelle under Contract Number DE-AC05-76RL01830. Support
            for this work was provided by the Department of Energy Office
            of Biological and Environmental Research, Office of Basic
            Energy Sciences, and the Office of Advanced Scientific Computing.


           Job information
           ---------------

    hostname        = node001
    program         = /home/hvandam/nwchem-1/bin/LINUX64/nwchem
    date            = Tue Oct 20 18:00:55 2020

    compiled        = Tue_Oct_20_10:55:14_2020
    source          = /home/hvandam/nwchem-1
    nwchem branch   = Development
    nwchem revision = nwchem_on_git-629-g59d5e6d
    ga revision     = 5.6.5
    use scalapack   = F
    input           = /home/hvandam/nwchem-1/QA/tests/1h9t/1h9t_md.nw
    prefix          = md_dat.
    data base       = ./md_dat.db
    status          = startup
    nproc           =       15
    time left       =     -1s



           Memory information
           ------------------

    heap     =   13107198 doubles =    100.0 Mbytes
    stack    =   13107195 doubles =    100.0 Mbytes
    global   =   26214400 doubles =    200.0 Mbytes (distinct from heap & stack)
    total    =   52428793 doubles =    400.0 Mbytes
    verify   = yes
    hardfail = no 


           Directory information
           ---------------------

  0 permanent = .
  0 scratch   = .




                                NWChem Input Module
                                -------------------



 MOLECULAR DYNAMICS                                                                                          10/20/20   18:00:55 

 Title   NWChem:MD input                                                                                     10/20/20   18:00:55 
                                                                                         
                                                                                         

 System 1h9t_md

 Force field parameter set    1

 Initial simulation

 Number of equilibration steps       0
 Number of data gathering steps  15000

 Cutoff radius     0.900000 nm
 Isobaric ensemble external pressure  1.02500E+05 Pa
 Pressure relaxation time     0.500000 ps
 Compressebility  4.53000E-10 m**2/N

 Leap-frog integration

 Maximum number of solvent SHAKE iterations   100, solvent SHAKE tolerance     0.000001 nm
 Maximum number of solute SHAKE iterations    100, solute SHAKE tolerance      0.000001 nm

 Frequency update pair lists                              1
 Frequency removal overall motion                         0
 Frequency solute centering                               0
 Frequency printing step information                     10
 Frequency printing statistical information             100
 Frequency recording restart file                         0
 Frequency recording system coordinates                   1
 Frequency recording solute coordinates                   1
 Frequency recording system velocities                    0
 Frequency recording solute velocities                    0
 Frequency recording system forces                        0
 Frequency recording solute forces                        0

 LOAD BALANCING

 Redistribution of inter-processor box pairs: retry      10
 Resizing of processor domains: smallest scaling          0.750000

 Load balancing frequency     0

 Load balancing based on last synchronization time

 Distribution information

 Short range cutoff                   0.900000
 Segment size                         1.233822
 Long range cutoff                    0.900000
 Box size rbox                        0.000000

 Box dimension                        8.296486   16.681567   41.514430

 Initial cell size                    1.516911

 Initial cell distribution            5   10   27
 Final cell distribution              5    9   25

 Minimum cell size                    1.516911    1.516911    1.516911

 ARRAY DIMENSION INFORMATION

 Number cells per processor:       75
 Number of buffer cells:            6
 Total number of cells:          1125
 Dimension solvent local:           1, global:      1
 Dimension solute local:        10000, global:  10000

 TOPOLOGY FILE INFORMATION

 Title        NWChem topology file for 1h9t_md                                                
                                                                                              
              Generated by the NWChem prepare module                                          
 Version          4.600000
 Date         10/20/20   17:43:31 
 Force field  amber     

 RESTART FILE INFORMATION

 Title        Restart file                                                                    
                                                                                              
                                                                                              
 Version          4.200000
 Date         10/20/20   17:58:47 

 History

 hvandam           10/20/20   17:44:45            0 em      83 +       0 1h9t_md                             
 hvandam           10/20/20   17:58:47            0 md       0 +    1000 @ 298.15 0.10E+06 1h9t_md           

 TOPOLOGY

 DATA PACKING

 Packing solute in   3 integers :    6   8   1
               significant bits :   15  12   5   7   7  11  11  11   5   2   2  10  10  10   2
 Packing solvent in  1 integers :    4
               significant bits :    2  12   5   5

 POSITIONAL CONSTRAINTS
 Number of fix directives is     0

 Solute fix applied to         0 out of     8958 atoms
 Solvent fix applied to        0 out of        0 molecules


 DOMAIN DECOMPOSITION

 Processor count    15 =    1 x    3 x    5
 Cell count       1125 =    5 x    9 x   25

 Minimum cell size     1.518428 x    1.518428 x    1.518428

 Warning: 

 Reduced number of cells in y-dimension:     9
 Reduced number of cells in z-dimension:    25

 Read previous box pair list


 Initial distribution p:b(w+s)

      0:   75(      0+      0)      1:   75(      0+      0)      2:   75(      0+      0)      3:   75(      0+      0)
      4:   75(      0+      0)      5:   75(      0+      0)      6:   75(      0+      0)      7:   75(      0+      0)
      8:   75(      0+      0)      9:   75(      0+      0)     10:   75(      0+      0)     11:   75(      0+      0)
     12:   75(      0+      0)     13:   75(      0+   2007)     14:   75(      0+   6951)

 Dimension workarrays solvent      1
                      solute   10000
 ========ADIOS from NWChem: timestep -                     1
 ADIOS mode: Null
 ========ADIOS from NWChem: timestep -                     2
 ========ADIOS from NWChem: timestep -                     3
 ========ADIOS from NWChem: timestep -                     4
 ========ADIOS from NWChem: timestep -                     5
 ========ADIOS from NWChem: timestep -                     6
 ========ADIOS from NWChem: timestep -                     7
 ========ADIOS from NWChem: timestep -                     8
 ========ADIOS from NWChem: timestep -                     9
 ========ADIOS from NWChem: timestep -                    10

 MOLECULAR DYNAMICS TIME STEP INFORMATION                                                                    10/20/20   18:01:03 

    Time      Temp    Pres      Volume Tscalw Tscals  Pscal    U(ele)    U(vdW)      U(pot)     U(kin)     U(tot) 
     ps         K      Pa        nm**3                         kJ/mol    kJ/mol      kJ/mol     kJ/mol     kJ/mol 

                 U(bnd)     U(ang)     U(dih)     U(imp)     Ui(3rd)    Ui(non)    Uw(ele)    Uw(vdW)    U(kin)     U(pot)     U(tot)
                 kJ/mol     kJ/mol     kJ/mol     kJ/mol     kJ/mol     kJ/mol     kJ/mol     kJ/mol     kJ/mol     kJ/mol     kJ/mol  

    0.02000  299.15 0.00E+00  5745.519 1.0000 1.0000 1.0000-1.2599E+05-3.5680E+03-7.4797E+04 3.3421E+04-4.1376E+04
   solute  1   10219.93   19032.31       0.00   25505.33   54359.18 -183913.59       0.00       0.00   33420.87 -129156.01  -95735.15
 ========ADIOS from NWChem: timestep -                    11
 ========ADIOS from NWChem: timestep -                    12
 ========ADIOS from NWChem: timestep -                    13
 ========ADIOS from NWChem: timestep -                    14
 ========ADIOS from NWChem: timestep -                    15
 ========ADIOS from NWChem: timestep -                    16
 ========ADIOS from NWChem: timestep -                    17
 ========ADIOS from NWChem: timestep -                    18
 ========ADIOS from NWChem: timestep -                    19
 ========ADIOS from NWChem: timestep -                    20
    0.04000  298.40 0.00E+00  5745.509 1.0000 1.0000 1.0000-1.2607E+05-3.6243E+03-7.4649E+04 3.3337E+04-4.1311E+04
   solute  1   10492.19   18956.36       0.00   25595.59   54588.13 -184280.84       0.00       0.00   33337.11 -129236.70  -95899.59
 ========ADIOS from NWChem: timestep -                    21
 ========ADIOS from NWChem: timestep -                    22
 ========ADIOS from NWChem: timestep -                    23
 ========ADIOS from NWChem: timestep -                    24
 ========ADIOS from NWChem: timestep -                    25
 ========ADIOS from NWChem: timestep -                    26
 ========ADIOS from NWChem: timestep -                    27
 ========ADIOS from NWChem: timestep -                    28
 ========ADIOS from NWChem: timestep -                    29
 ========ADIOS from NWChem: timestep -                    30
    0.06000  301.76 0.00E+00  5745.498 1.0000 1.0000 1.0000-1.2626E+05-3.4963E+03-7.5246E+04 3.3713E+04-4.1533E+04
   solute  1   10345.41   18471.75       0.00   25690.14   54800.94 -184554.19       0.00       0.00   33713.29 -130046.88  -96333.59
 ========ADIOS from NWChem: timestep -                    31
 ========ADIOS from NWChem: timestep -                    32
 ========ADIOS from NWChem: timestep -                    33
 ========ADIOS from NWChem: timestep -                    34
 ========ADIOS from NWChem: timestep -                    35
 ========ADIOS from NWChem: timestep -                    36
 ========ADIOS from NWChem: timestep -                    37
 ========ADIOS from NWChem: timestep -                    38
 ========ADIOS from NWChem: timestep -                    39
 ========ADIOS from NWChem: timestep -                    40
    0.08000  298.09 0.00E+00  5745.487 1.0000 1.0000 1.0000-1.2618E+05-3.6756E+03-7.4670E+04 3.3302E+04-4.1368E+04
   solute  1   10621.59   18936.19       0.00   25627.22   54875.61 -184730.73       0.00       0.00   33302.50 -129545.73  -96243.23
 ========ADIOS from NWChem: timestep -                    41
 ========ADIOS from NWChem: timestep -                    42
 ========ADIOS from NWChem: timestep -                    43
 ========ADIOS from NWChem: timestep -                    44
 ========ADIOS from NWChem: timestep -                    45
 ========ADIOS from NWChem: timestep -                    46
 ========ADIOS from NWChem: timestep -                    47
 ========ADIOS from NWChem: timestep -                    48
 ========ADIOS from NWChem: timestep -                    49
 ========ADIOS from NWChem: timestep -                    50
    0.10000  303.58 0.00E+00  5745.477 1.0000 1.0000 1.0000-1.2654E+05-3.9123E+03-7.5814E+04 3.3916E+04-4.1899E+04
   solute  1   10278.22   18822.46       0.00   25536.82   54634.12 -185085.91       0.00       0.00   33915.65 -130448.41  -96532.76
 ========ADIOS from NWChem: timestep -                    51
 ========ADIOS from NWChem: timestep -                    52
 ========ADIOS from NWChem: timestep -                    53
 ========ADIOS from NWChem: timestep -                    54
 ========ADIOS from NWChem: timestep -                    55
 ========ADIOS from NWChem: timestep -                    56
 ========ADIOS from NWChem: timestep -                    57
 ========ADIOS from NWChem: timestep -                    58
 ========ADIOS from NWChem: timestep -                    59
 ========ADIOS from NWChem: timestep -                    60
    0.12000  306.86 0.00E+00  5745.466 1.0000 1.0000 1.0000-1.2629E+05-4.0548E+03-7.5744E+04 3.4283E+04-4.1461E+04
   solute  1   10322.26   18742.72       0.00   25540.71   54613.48 -184962.76       0.00       0.00   34283.08 -130357.08  -96074.00
 ========ADIOS from NWChem: timestep -                    61
 ========ADIOS from NWChem: timestep -                    62
 ========ADIOS from NWChem: timestep -                    63
 ========ADIOS from NWChem: timestep -                    64
 ========ADIOS from NWChem: timestep -                    65
 ========ADIOS from NWChem: timestep -                    66
 ========ADIOS from NWChem: timestep -                    67
 ========ADIOS from NWChem: timestep -                    68
 ========ADIOS from NWChem: timestep -                    69
 ========ADIOS from NWChem: timestep -                    70
    0.14000  305.22 0.00E+00  5745.455 1.0000 1.0000 1.0000-1.2548E+05-3.7728E+03-7.4857E+04 3.4100E+04-4.0758E+04
   solute  1   10229.44   18563.64       0.00   25600.88   55021.44 -184272.80       0.00       0.00   34099.54 -129878.83  -95779.29
 ========ADIOS from NWChem: timestep -                    71
 ========ADIOS from NWChem: timestep -                    72
 ========ADIOS from NWChem: timestep -                    73
 ========ADIOS from NWChem: timestep -                    74
 ========ADIOS from NWChem: timestep -                    75
 ========ADIOS from NWChem: timestep -                    76
 ========ADIOS from NWChem: timestep -                    77
 ========ADIOS from NWChem: timestep -                    78
 ========ADIOS from NWChem: timestep -                    79
 ========ADIOS from NWChem: timestep -                    80
    0.16000  304.07 0.00E+00  5745.445 1.0000 1.0000 1.0000-1.2558E+05-3.6542E+03-7.4163E+04 3.3971E+04-4.0192E+04
   solute  1   10560.72   18840.36       0.00   25669.77   54403.35 -183637.35       0.00       0.00   33971.05 -128566.50  -94595.44
 ========ADIOS from NWChem: timestep -                    81
 ========ADIOS from NWChem: timestep -                    82
 ========ADIOS from NWChem: timestep -                    83
 ========ADIOS from NWChem: timestep -                    84
 ========ADIOS from NWChem: timestep -                    85
 ========ADIOS from NWChem: timestep -                    86
 ========ADIOS from NWChem: timestep -                    87
 ========ADIOS from NWChem: timestep -                    88
 ========ADIOS from NWChem: timestep -                    89
 ========ADIOS from NWChem: timestep -                    90
    0.18000  301.69 0.00E+00  5745.434 1.0000 1.0000 1.0000-1.2609E+05-3.8346E+03-7.4768E+04 3.3705E+04-4.1063E+04
   solute  1   10469.89   18867.99       0.00   25822.05   54378.31 -184306.46       0.00       0.00   33705.12 -129146.53  -95441.41
 ========ADIOS from NWChem: timestep -                    91
 ========ADIOS from NWChem: timestep -                    92
 ========ADIOS from NWChem: timestep -                    93
 ========ADIOS from NWChem: timestep -                    94
 ========ADIOS from NWChem: timestep -                    95
 ========ADIOS from NWChem: timestep -                    96
 ========ADIOS from NWChem: timestep -                    97
 ========ADIOS from NWChem: timestep -                    98
 ========ADIOS from NWChem: timestep -                    99
 ========ADIOS from NWChem: timestep -                   100
    0.20000  303.91 0.00E+00  5745.423 1.0000 1.0000 1.0000-1.2593E+05-4.0825E+03-7.4708E+04 3.3953E+04-4.0755E+04
   solute  1   10509.97   18848.82       0.00   25945.15   54254.92 -184267.14       0.00       0.00   33953.27 -128963.20  -95009.93

 MOLECULAR DYNAMICS STATISTICAL INFORMATION                                                                  10/20/20   18:02:13 

                                           Statistics over last      100 steps     Statistics over last      100 steps
                                           Average     RMS fluct     Drift/ps      Average     RMS fluct     Drift/ps

 Step                                    5.05000E+01  2.88661E+01  5.00000E+02   5.05000E+01  2.88661E+01  5.00000E+02             
 Time                                    1.01000E-01  5.77321E-02  1.00000E+00   1.01000E-01  5.77321E-02  1.00000E+00           ps
 Number solute-solute interactions   SR  2.34487E+06  3.23010E+03  3.78473E+04   2.34487E+06  3.23010E+03  3.78473E+04             
 Number of solute SHAKE iterations       1.00000E+00  0.00000E+00  0.00000E+00   1.00000E+00  0.00000E+00  0.00000E+00             
 Volume                                  5.74548E+03  3.08033E-02 -5.33554E-01   5.74548E+03  3.08033E-02 -5.33554E-01        nm**3
 Mass density                            1.96700E+01  1.05456E-04  1.82665E-03   1.96700E+01  1.05456E-04  1.82665E-03      kg/m**3
 Pressure                                0.00000E+00  0.00000E+00  0.00000E+00   0.00000E+00  0.00000E+00  0.00000E+00           Pa
 Pressure scaling                        1.00000E+00  7.05252E-08  5.86256E-14   1.00000E+00  7.05252E-08  5.86256E-14             
 Temperature                             3.02324E+02  2.85039E+00  2.76330E+01   3.02324E+02  2.85039E+00  2.76330E+01            K
 Temperature solute                      3.02324E+02  2.85039E+00  2.76330E+01   3.02324E+02  2.85039E+00  2.76330E+01            K
 Temperature scaling solute              1.00000E+00  0.00000E+00  0.00000E+00   1.00000E+00  0.00000E+00  0.00000E+00             
 Energy electrostatic                   -1.26035E+05  3.31049E+02  1.19607E+03  -1.26035E+05  3.31049E+02  1.19607E+03       kJ/mol
 Energy van der Waals                   -3.76015E+03  1.98855E+02 -1.88473E+03  -3.76015E+03  1.98855E+02 -1.88473E+03       kJ/mol
 Energy potential                       -7.49675E+04  4.58334E+02  1.23746E+03  -7.49675E+04  4.58334E+02  1.23746E+03       kJ/mol
 Energy kinetic                          3.37758E+04  3.18448E+02  3.08718E+03   3.37758E+04  3.18448E+02  3.08718E+03       kJ/mol
 Energy total                           -4.11917E+04  4.32876E+02  4.32464E+03  -4.11917E+04  4.32876E+02  4.32464E+03       kJ/mol
 Synchronization time                    9.99923E+00  7.33501E-03  3.84375E-02   9.99923E+00  7.33501E-03  3.84375E-02            s
 Efficiency load balancing               1.36406E-01  2.70677E-03 -8.41826E-03   1.36406E-01  2.70677E-03 -8.41826E-03             
 Time per step                           7.71618E-01  1.48086E-03 -1.22256E-03   7.71618E-01  1.48086E-03 -1.22256E-03            s
 Virial tensor element (1,1)             4.38279E+01  2.18646E+03  2.57920E+04   4.38279E+01  2.18646E+03  2.57920E+04       kJ/mol
 Virial tensor element (1,2)             1.52872E+02  4.80035E+03  4.06708E+04   1.52872E+02  4.80035E+03  4.06708E+04       kJ/mol
 Virial tensor element (1,3)             1.74200E+03  4.83322E+03 -4.65298E+04   1.74200E+03  4.83322E+03 -4.65298E+04       kJ/mol
 Virial tensor element (2,1)            -3.89220E+02  1.99468E+03 -6.84235E+03  -3.89220E+02  1.99468E+03 -6.84235E+03       kJ/mol
 Virial tensor element (2,2)             9.52780E+02  3.96229E+03 -2.16323E+04   9.52780E+02  3.96229E+03 -2.16323E+04       kJ/mol
 Virial tensor element (2,3)             4.96685E+02  2.89461E+03 -1.26759E+04   4.96685E+02  2.89461E+03 -1.26759E+04       kJ/mol
 Virial tensor element (3,1)             1.74499E+03  4.94227E+03 -4.54796E+04   1.74499E+03  4.94227E+03 -4.54796E+04       kJ/mol
 Virial tensor element (3,2)            -2.43631E+02  3.10408E+03  7.83873E+03  -2.43631E+02  3.10408E+03  7.83873E+03       kJ/mol
 Virial tensor element (3,3)            -1.13012E+03  6.91388E+03  5.02988E+04  -1.13012E+03  6.91388E+03  5.02988E+04       kJ/mol
 Kinetic energy element (1,1)            3.39136E+02  7.02430E+01 -8.83588E+02   3.39136E+02  7.02430E+01 -8.83588E+02       kJ/mol
 Kinetic energy element (1,2)           -1.23060E+01  2.63139E+01 -5.89062E+01  -1.23060E+01  2.63139E+01 -5.89062E+01       kJ/mol
 Kinetic energy element (1,3)           -2.76145E+00  1.66106E+01  3.59446E+00  -2.76145E+00  1.66106E+01  3.59446E+00       kJ/mol
 Kinetic energy element (2,1)           -1.23060E+01  2.63139E+01 -5.89062E+01  -1.23060E+01  2.63139E+01 -5.89062E+01       kJ/mol
 Kinetic energy element (2,2)            3.25123E+02  2.19865E+01  9.32048E+01   3.25123E+02  2.19865E+01  9.32048E+01       kJ/mol
 Kinetic energy element (2,3)           -4.28635E+01  2.57926E+01 -3.48932E+02  -4.28635E+01  2.57926E+01 -3.48932E+02       kJ/mol
 Kinetic energy element (3,1)           -2.76145E+00  1.66106E+01  3.59446E+00  -2.76145E+00  1.66106E+01  3.59446E+00       kJ/mol
 Kinetic energy element (3,2)           -4.28635E+01  2.57926E+01 -3.48932E+02  -4.28635E+01  2.57926E+01 -3.48932E+02       kJ/mol
 Kinetic energy element (3,3)            2.13321E+02  1.91703E+01 -2.05807E+02   2.13321E+02  1.91703E+01 -2.05807E+02       kJ/mol
 Energy solute   1 intra-electrostatic  -1.71429E+05  3.26640E+02  8.87270E+02  -1.71429E+05  3.26640E+02  8.87270E+02       kJ/mol
 Energy solute   1 intra-van der Waals  -1.29555E+04  2.04047E+02 -1.63428E+03  -1.29555E+04  2.04047E+02 -1.63428E+03       kJ/mol
 Energy solute   1 bonds                 1.03661E+04  1.67281E+02  7.23285E+02   1.03661E+04  1.67281E+02  7.23285E+02       kJ/mol
 Energy solute   1 angles                1.88201E+04  1.78095E+02 -1.19401E+02   1.88201E+04  1.78095E+02 -1.19401E+02       kJ/mol
 Energy solute   1 Urey-Bradley          0.00000E+00  0.00000E+00  0.00000E+00   0.00000E+00  0.00000E+00  0.00000E+00       kJ/mol
 Energy solute   1 proper dihedrals      2.56413E+04  1.22289E+02  1.32224E+03   2.56413E+04  1.22289E+02  1.32224E+03       kJ/mol
 Energy solute   1 improper dihedrals    0.00000E+00  0.00000E+00  0.00000E+00   0.00000E+00  0.00000E+00  0.00000E+00       kJ/mol
 Energy solute   1 van der Waals 3rd     9.19537E+03  6.67464E+01 -2.50444E+02   9.19537E+03  6.67464E+01 -2.50444E+02       kJ/mol
 Energy solute   1 electrostatic 3rd     4.53947E+04  2.10133E+02  3.08795E+02   4.53947E+04  2.10133E+02  3.08795E+02       kJ/mol
 Energy solute   1 van der Waals nb     -1.29555E+04  2.04047E+02 -1.63428E+03  -1.29555E+04  2.04047E+02 -1.63428E+03       kJ/mol
 Energy solute   1 electrostatic nb     -1.71429E+05  3.26640E+02  8.87270E+02  -1.71429E+05  3.26640E+02  8.87270E+02       kJ/mol
 Energy solute   1 kinetic               3.37758E+04  3.18448E+02  3.08718E+03   3.37758E+04  3.18448E+02  3.08718E+03       kJ/mol
 Energy solute   1 potential            -7.49675E+04  4.58334E+02  1.23746E+03  -7.49675E+04  4.58334E+02  1.23746E+03       kJ/mol
 ========ADIOS from NWChem: timestep -                   101
 ========ADIOS from NWChem: timestep -                   102
 ========ADIOS from NWChem: timestep -                   103
 ========ADIOS from NWChem: timestep -                   104
 ========ADIOS from NWChem: timestep -                   105
 ========ADIOS from NWChem: timestep -                   106
 ========ADIOS from NWChem: timestep -                   107
 ========ADIOS from NWChem: timestep -                   108
 ========ADIOS from NWChem: timestep -                   109
 ========ADIOS from NWChem: timestep -                   110

 MOLECULAR DYNAMICS TIME STEP INFORMATION                                                                    10/20/20   18:02:21 

    Time      Temp    Pres      Volume Tscalw Tscals  Pscal    U(ele)    U(vdW)      U(pot)     U(kin)     U(tot) 
     ps         K      Pa        nm**3                         kJ/mol    kJ/mol      kJ/mol     kJ/mol     kJ/mol 

                 U(bnd)     U(ang)     U(dih)     U(imp)     Ui(3rd)    Ui(non)    Uw(ele)    Uw(vdW)    U(kin)     U(pot)     U(tot)
                 kJ/mol     kJ/mol     kJ/mol     kJ/mol     kJ/mol     kJ/mol     kJ/mol     kJ/mol     kJ/mol     kJ/mol     kJ/mol  

    0.22000  301.56 0.00E+00  5745.413 1.0000 1.0000 1.0000-1.2616E+05-3.9769E+03-7.4445E+04 3.3690E+04-4.0755E+04
   solute  1   10473.96   19521.47       0.00   25697.26   54297.57 -184435.26       0.00       0.00   33690.29 -128742.57  -95052.28
 ========ADIOS from NWChem: timestep -                   111
 ========ADIOS from NWChem: timestep -                   112
 ========ADIOS from NWChem: timestep -                   113
 ========ADIOS from NWChem: timestep -                   114
 ========ADIOS from NWChem: timestep -                   115
 ========ADIOS from NWChem: timestep -                   116
 ========ADIOS from NWChem: timestep -                   117
 ========ADIOS from NWChem: timestep -                   118
 ========ADIOS from NWChem: timestep -                   119
 ========ADIOS from NWChem: timestep -                   120
    0.24000  296.44 0.00E+00  5745.402 1.0000 1.0000 1.0000-1.2654E+05-4.0324E+03-7.4551E+04 3.3119E+04-4.1432E+04
   solute  1   10797.89   19285.79       0.00   25938.76   54293.27 -184866.45       0.00       0.00   33118.77 -128844.01  -95725.24
 ========ADIOS from NWChem: timestep -                   121
 ========ADIOS from NWChem: timestep -                   122
 ========ADIOS from NWChem: timestep -                   123
 ========ADIOS from NWChem: timestep -                   124
 ========ADIOS from NWChem: timestep -                   125
 ========ADIOS from NWChem: timestep -                   126
 ========ADIOS from NWChem: timestep -                   127
 ========ADIOS from NWChem: timestep -                   128
 ========ADIOS from NWChem: timestep -                   129
 ========ADIOS from NWChem: timestep -                   130
    0.26000  299.30 0.00E+00  5745.391 1.0000 1.0000 1.0000-1.2689E+05-3.8731E+03-7.4921E+04 3.3438E+04-4.1483E+04
   solute  1   10574.79   19288.65       0.00   25977.30   54413.46 -185175.56       0.00       0.00   33438.45 -129334.82  -95896.37
 ========ADIOS from NWChem: timestep -                   131
 ========ADIOS from NWChem: timestep -                   132
 ========ADIOS from NWChem: timestep -                   133
 ========ADIOS from NWChem: timestep -                   134
 ========ADIOS from NWChem: timestep -                   135
 ========ADIOS from NWChem: timestep -                   136
 ========ADIOS from NWChem: timestep -                   137
 ========ADIOS from NWChem: timestep -                   138
 ========ADIOS from NWChem: timestep -                   139
 ========ADIOS from NWChem: timestep -                   140
    0.28000  302.60 0.00E+00  5745.381 1.0000 1.0000 1.0000-1.2780E+05-3.9288E+03-7.6032E+04 3.3807E+04-4.2225E+04
   solute  1   10551.88   19193.31       0.00   25952.23   54274.05 -186003.49       0.00       0.00   33806.85 -130306.07  -96499.22
 ========ADIOS from NWChem: timestep -                   141
 ========ADIOS from NWChem: timestep -                   142
 ========ADIOS from NWChem: timestep -                   143
 ========ADIOS from NWChem: timestep -                   144
 ========ADIOS from NWChem: timestep -                   145
 ========ADIOS from NWChem: timestep -                   146
 ========ADIOS from NWChem: timestep -                   147
 ========ADIOS from NWChem: timestep -                   148
 ========ADIOS from NWChem: timestep -                   149
 ========ADIOS from NWChem: timestep -                   150
    0.30000  299.44 0.00E+00  5745.370 1.0000 1.0000 1.0000-1.2765E+05-3.7952E+03-7.5484E+04 3.3454E+04-4.2030E+04
   solute  1   10680.50   19197.70       0.00   26081.11   54150.40 -185594.08       0.00       0.00   33453.89 -129634.77  -96180.88
 ========ADIOS from NWChem: timestep -                   151
 ========ADIOS from NWChem: timestep -                   152
 ========ADIOS from NWChem: timestep -                   153
 ========ADIOS from NWChem: timestep -                   154
 ========ADIOS from NWChem: timestep -                   155
 ========ADIOS from NWChem: timestep -                   156
 ========ADIOS from NWChem: timestep -                   157
 ========ADIOS from NWChem: timestep -                   158
 ========ADIOS from NWChem: timestep -                   159
 ========ADIOS from NWChem: timestep -                   160
    0.32000  304.68 0.00E+00  5745.359 1.0000 1.0000 1.0000-1.2768E+05-3.2940E+03-7.5434E+04 3.4039E+04-4.1395E+04
   solute  1   10603.02   19177.33       0.00   25759.45   54423.38 -185397.19       0.00       0.00   34039.43 -129857.39  -95817.96
 ========ADIOS from NWChem: timestep -                   161
 ========ADIOS from NWChem: timestep -                   162
 ========ADIOS from NWChem: timestep -                   163
 ========ADIOS from NWChem: timestep -                   164
 ========ADIOS from NWChem: timestep -                   165
 ========ADIOS from NWChem: timestep -                   166
 ========ADIOS from NWChem: timestep -                   167
 ========ADIOS from NWChem: timestep -                   168
 ========ADIOS from NWChem: timestep -                   169
 ========ADIOS from NWChem: timestep -                   170
    0.34000  302.05 0.00E+00  5745.349 1.0000 1.0000 1.0000-1.2787E+05-2.9690E+03-7.5408E+04 3.3746E+04-4.1662E+04
   solute  1   10618.52   18845.80       0.00   25962.25   54991.38 -185825.92       0.00       0.00   33745.62 -130399.35  -96653.73
 ========ADIOS from NWChem: timestep -                   171
 ========ADIOS from NWChem: timestep -                   172
 ========ADIOS from NWChem: timestep -                   173
 ========ADIOS from NWChem: timestep -                   174
 ========ADIOS from NWChem: timestep -                   175
 ========ADIOS from NWChem: timestep -                   176
 ========ADIOS from NWChem: timestep -                   177
 ========ADIOS from NWChem: timestep -                   178
 ========ADIOS from NWChem: timestep -                   179
 ========ADIOS from NWChem: timestep -                   180
    0.36000  303.80 0.00E+00  5745.338 1.0000 1.0000 1.0000-1.2742E+05-3.5165E+03-7.5381E+04 3.3940E+04-4.1440E+04
   solute  1   10830.75   18924.94       0.00   25800.24   54640.99 -185577.75       0.00       0.00   33940.39 -130021.82  -96081.44
 ========ADIOS from NWChem: timestep -                   181
 ========ADIOS from NWChem: timestep -                   182
 ========ADIOS from NWChem: timestep -                   183
 ========ADIOS from NWChem: timestep -                   184
 ========ADIOS from NWChem: timestep -                   185
 ========ADIOS from NWChem: timestep -                   186
 ========ADIOS from NWChem: timestep -                   187
 ========ADIOS from NWChem: timestep -                   188
 ========ADIOS from NWChem: timestep -                   189
 ========ADIOS from NWChem: timestep -                   190
    0.38000  305.77 0.00E+00  5745.327 1.0000 1.0000 1.0000-1.2813E+05-3.4770E+03-7.5599E+04 3.4161E+04-4.1438E+04
   solute  1   10827.93   19453.41       0.00   25725.60   54286.90 -185893.00       0.00       0.00   34160.81 -129886.05  -95725.24
 ========ADIOS from NWChem: timestep -                   191
 ========ADIOS from NWChem: timestep -                   192
 ========ADIOS from NWChem: timestep -                   193
 ========ADIOS from NWChem: timestep -                   194
 ========ADIOS from NWChem: timestep -                   195
 ========ADIOS from NWChem: timestep -                   196
 ========ADIOS from NWChem: timestep -                   197
 ========ADIOS from NWChem: timestep -                   198
 ========ADIOS from NWChem: timestep -                   199
 ========ADIOS from NWChem: timestep -                   200
    0.40000  304.86 0.00E+00  5745.317 1.0000 1.0000 1.0000-1.2809E+05-3.5255E+03-7.5413E+04 3.4060E+04-4.1353E+04
   solute  1   10725.78   19676.33       0.00   25796.46   54246.11 -185857.35       0.00       0.00   34059.65 -129658.78  -95599.13

 MOLECULAR DYNAMICS STATISTICAL INFORMATION                                                                  10/20/20   18:03:30 

                                           Statistics over last      100 steps     Statistics over last      200 steps
                                           Average     RMS fluct     Drift/ps      Average     RMS fluct     Drift/ps

 Step                                    1.50500E+02  2.88661E+01  5.00000E+02   1.00500E+02  5.77343E+01  5.00000E+02             
 Time                                    3.01000E-01  5.77321E-02  1.00000E+00   2.01000E-01  1.15469E-01  1.00000E+00           ps
 Number solute-solute interactions   SR  2.35974E+06  4.69652E+03  6.19391E+04   2.35230E+06  8.45553E+03  6.82218E+04             
 Number of solute SHAKE iterations       1.00000E+00  0.00000E+00  0.00000E+00   1.00000E+00  0.00000E+00  0.00000E+00             
 Volume                                  5.74537E+03  3.08030E-02 -5.33544E-01   5.74542E+03  6.16086E-02 -5.33549E-01        nm**3
 Mass density                            1.96704E+01  1.05458E-04  1.82669E-03   1.96702E+01  2.10922E-04  1.82667E-03      kg/m**3
 Pressure                                0.00000E+00  0.00000E+00  0.00000E+00   0.00000E+00  0.00000E+00  0.00000E+00           Pa
 Pressure scaling                        1.00000E+00  7.05252E-08  1.49229E-13   1.00000E+00  9.31054E-08 -4.26336E-14             
 Temperature                             3.01794E+02  3.06353E+00  3.64331E+01   3.02059E+02  2.97070E+00  6.02193E+00            K
 Temperature solute                      3.01794E+02  3.06353E+00  3.64331E+01   3.02059E+02  2.97070E+00  6.02193E+00            K
 Temperature scaling solute              1.00000E+00  0.00000E+00  0.00000E+00   1.00000E+00  0.00000E+00  0.00000E+00             
 Energy electrostatic                   -1.27204E+05  8.03965E+02 -1.19328E+04  -1.26620E+05  8.48541E+02 -5.72845E+03       kJ/mol
 Energy van der Waals                   -3.66921E+03  3.62117E+02  4.60798E+03  -3.71468E+03  2.95641E+02  6.81431E+02       kJ/mol
 Energy potential                       -7.51119E+04  6.24672E+02 -7.54466E+03  -7.50397E+04  5.52587E+02 -1.32973E+03       kJ/mol
 Energy kinetic                          3.37167E+04  3.42259E+02  4.07033E+03   3.37463E+04  3.31889E+02  6.72774E+02       kJ/mol
 Energy total                           -4.13952E+04  4.95389E+02 -3.47433E+03  -4.12934E+04  4.76184E+02 -6.56951E+02       kJ/mol
 Synchronization time                    1.00116E+01  7.53227E-03  7.00645E-02   1.00054E+01  9.65795E-03  5.98004E-02            s
 Efficiency load balancing               1.36523E-01  4.74615E-03 -1.23860E-02   1.36465E-01  3.86390E-03 -2.16097E-03             
 Time per step                           7.72805E-01  4.50935E-03 -6.07010E-03   7.72212E-01  3.40821E-03  3.54007E-03            s
 Virial tensor element (1,1)             1.09843E+03  3.35380E+03  3.46961E+04   5.71129E+02  2.87964E+03  1.15153E+04       kJ/mol
 Virial tensor element (1,2)            -1.96758E+03  2.92950E+03  1.21044E+04  -9.07352E+02  4.11543E+03 -1.35547E+03       kJ/mol
 Virial tensor element (1,3)            -2.18769E+02  4.20897E+03 -9.66900E+03   7.61617E+02  4.63669E+03 -1.43774E+04       kJ/mol
 Virial tensor element (2,1)             8.11153E+02  1.48218E+03 -8.75074E+03   2.10967E+02  1.85689E+03  2.55252E+03       kJ/mol
 Virial tensor element (2,2)             5.27593E+02  1.67711E+03  8.63219E+03   7.40186E+02  3.04982E+03 -3.21938E+03       kJ/mol
 Virial tensor element (2,3)             7.97693E+02  2.64206E+03 -1.26600E+04   6.47189E+02  2.77530E+03 -2.03794E+03       kJ/mol
 Virial tensor element (3,1)             2.82332E+03  4.44085E+03 -7.03078E+04   2.28415E+03  4.72909E+03 -1.04285E+04       kJ/mol
 Virial tensor element (3,2)             1.64123E+01  6.47358E+03 -3.29729E+04  -1.13609E+02  5.07820E+03 -2.16635E+03       kJ/mol
 Virial tensor element (3,3)             1.57511E+03  4.18696E+03 -2.30772E+04   2.22495E+02  5.87330E+03  1.35473E+04       kJ/mol
 Kinetic energy element (1,1)            3.62857E+02  2.58932E+01 -8.53931E+01   3.50997E+02  5.42488E+01 -3.21608E+01       kJ/mol
 Kinetic energy element (1,2)            1.18281E+01  1.80231E+01  2.61428E+02  -2.38961E-01  2.55782E+01  1.15819E+02       kJ/mol
 Kinetic energy element (1,3)           -4.34661E+01  1.56468E+01 -3.88008E+01  -2.31138E+01  2.59728E+01 -1.57047E+02       kJ/mol
 Kinetic energy element (2,1)            1.18281E+01  1.80231E+01  2.61428E+02  -2.38961E-01  2.55782E+01  1.15819E+02       kJ/mol
 Kinetic energy element (2,2)            3.63006E+02  3.53733E+01  3.87861E+02   3.44064E+02  3.50160E+01  2.02193E+02       kJ/mol
 Kinetic energy element (2,3)           -3.31139E+01  3.94907E+01  5.98922E+02  -3.79887E+01  3.37068E+01  6.78083E+01       kJ/mol
 Kinetic energy element (3,1)           -4.34661E+01  1.56468E+01 -3.88008E+01  -2.31138E+01  2.59728E+01 -1.57047E+02       kJ/mol
 Kinetic energy element (3,2)           -3.31139E+01  3.94907E+01  5.98922E+02  -3.79887E+01  3.37068E+01  6.78083E+01       kJ/mol
 Kinetic energy element (3,3)            2.76166E+02  4.53902E+01 -7.69834E+01   2.44744E+02  4.69175E+01  2.00327E+02       kJ/mol
 Energy solute   1 intra-electrostatic  -1.72403E+05  8.16145E+02 -1.28068E+04  -1.71916E+05  7.89414E+02 -5.13943E+03       kJ/mol
 Energy solute   1 intra-van der Waals  -1.28641E+04  2.79429E+02  3.91164E+03  -1.29098E+04  2.48890E+02  6.27401E+02       kJ/mol
 Energy solute   1 bonds                 1.06647E+04  1.78783E+02  1.24262E+03   1.05154E+04  2.28619E+02  1.36558E+03       kJ/mol
 Energy solute   1 angles                1.92218E+04  2.56051E+02 -9.38679E+02   1.90209E+04  2.98296E+02  1.37416E+03       kJ/mol
 Energy solute   1 Urey-Bradley          0.00000E+00  0.00000E+00  0.00000E+00   0.00000E+00  0.00000E+00  0.00000E+00       kJ/mol
 Energy solute   1 proper dihedrals      2.58753E+04  1.17087E+02 -5.23761E+02   2.57583E+04  1.67417E+02  9.77560E+02       kJ/mol
 Energy solute   1 improper dihedrals    0.00000E+00  0.00000E+00  0.00000E+00   0.00000E+00  0.00000E+00  0.00000E+00       kJ/mol
 Energy solute   1 van der Waals 3rd     9.19492E+03  1.32278E+02  6.96333E+02   9.19515E+03  1.04768E+02  5.40303E+01       kJ/mol
 Energy solute   1 electrostatic 3rd     4.51982E+04  1.56821E+02  8.73983E+02   4.52964E+04  2.09825E+02 -5.89025E+02       kJ/mol
 Energy solute   1 van der Waals nb     -1.28641E+04  2.79429E+02  3.91164E+03  -1.29098E+04  2.48890E+02  6.27401E+02       kJ/mol
 Energy solute   1 electrostatic nb     -1.72403E+05  8.16145E+02 -1.28068E+04  -1.71916E+05  7.89414E+02 -5.13943E+03       kJ/mol
 Energy solute   1 kinetic               3.37167E+04  3.42259E+02  4.07033E+03   3.37463E+04  3.31889E+02  6.72774E+02       kJ/mol
 Energy solute   1 potential            -7.51119E+04  6.24672E+02 -7.54466E+03  -7.50397E+04  5.52587E+02 -1.32973E+03       kJ/mol
 ========ADIOS from NWChem: timestep -                   201
 ========ADIOS from NWChem: timestep -                   202
 ========ADIOS from NWChem: timestep -                   203
 ========ADIOS from NWChem: timestep -                   204
 ========ADIOS from NWChem: timestep -                   205
 ========ADIOS from NWChem: timestep -                   206
 ========ADIOS from NWChem: timestep -                   207
 ========ADIOS from NWChem: timestep -                   208
 ========ADIOS from NWChem: timestep -                   209
 ========ADIOS from NWChem: timestep -                   210

 MOLECULAR DYNAMICS TIME STEP INFORMATION                                                                    10/20/20   18:03:38 

    Time      Temp    Pres      Volume Tscalw Tscals  Pscal    U(ele)    U(vdW)      U(pot)     U(kin)     U(tot) 
     ps         K      Pa        nm**3                         kJ/mol    kJ/mol      kJ/mol     kJ/mol     kJ/mol 

                 U(bnd)     U(ang)     U(dih)     U(imp)     Ui(3rd)    Ui(non)    Uw(ele)    Uw(vdW)    U(kin)     U(pot)     U(tot)
                 kJ/mol     kJ/mol     kJ/mol     kJ/mol     kJ/mol     kJ/mol     kJ/mol     kJ/mol     kJ/mol     kJ/mol     kJ/mol  

    0.42000  300.09 0.00E+00  5745.306 1.0000 1.0000 1.0000-1.2694E+05-3.7733E+03-7.4823E+04 3.3526E+04-4.1297E+04
   solute  1   10905.26   19185.70       0.00   25799.67   54789.27 -185503.33       0.00       0.00   33525.98 -129612.71  -96086.72
 ========ADIOS from NWChem: timestep -                   211
 ========ADIOS from NWChem: timestep -                   212
 ========ADIOS from NWChem: timestep -                   213
 ========ADIOS from NWChem: timestep -                   214
 ========ADIOS from NWChem: timestep -                   215
 ========ADIOS from NWChem: timestep -                   216
 ========ADIOS from NWChem: timestep -                   217
 ========ADIOS from NWChem: timestep -                   218
 ========ADIOS from NWChem: timestep -                   219
 ========ADIOS from NWChem: timestep -                   220
    0.44000  303.18 0.00E+00  5745.295 1.0000 1.0000 1.0000-1.2792E+05-3.7757E+03-7.5572E+04 3.3871E+04-4.1701E+04
   solute  1   11122.89   19338.68       0.00   25666.18   54486.90 -186186.65       0.00       0.00   33871.06 -130058.90  -96187.84
 ========ADIOS from NWChem: timestep -                   221
 ========ADIOS from NWChem: timestep -                   222
 ========ADIOS from NWChem: timestep -                   223
 ========ADIOS from NWChem: timestep -                   224
 ========ADIOS from NWChem: timestep -                   225
 ========ADIOS from NWChem: timestep -                   226
 ========ADIOS from NWChem: timestep -                   227
 ========ADIOS from NWChem: timestep -                   228
 ========ADIOS from NWChem: timestep -                   229
 ========ADIOS from NWChem: timestep -                   230
    0.46000  306.87 0.00E+00  5745.285 1.0000 1.0000 1.0000-1.2801E+05-3.5648E+03-7.6063E+04 3.4284E+04-4.1779E+04
   solute  1   10603.80   19457.28       0.00   25449.44   54708.71 -186282.22       0.00       0.00   34284.02 -130771.70  -96487.68
 ========ADIOS from NWChem: timestep -                   231
 ========ADIOS from NWChem: timestep -                   232
 ========ADIOS from NWChem: timestep -                   233
 ========ADIOS from NWChem: timestep -                   234
 ========ADIOS from NWChem: timestep -                   235
 ========ADIOS from NWChem: timestep -                   236
 ========ADIOS from NWChem: timestep -                   237
 ========ADIOS from NWChem: timestep -                   238
 ========ADIOS from NWChem: timestep -                   239
 ========ADIOS from NWChem: timestep -                   240
    0.48000  301.48 0.00E+00  5745.274 1.0000 1.0000 1.0000-1.2726E+05-3.4533E+03-7.4581E+04 3.3681E+04-4.0899E+04
   solute  1   11096.12   19286.71       0.00   25749.51   55002.62 -185715.49       0.00       0.00   33681.12 -129583.15  -95902.04
 ========ADIOS from NWChem: timestep -                   241
 ========ADIOS from NWChem: timestep -                   242
 ========ADIOS from NWChem: timestep -                   243
 ========ADIOS from NWChem: timestep -                   244
 ========ADIOS from NWChem: timestep -                   245
 ========ADIOS from NWChem: timestep -                   246
 ========ADIOS from NWChem: timestep -                   247
 ========ADIOS from NWChem: timestep -                   248
 ========ADIOS from NWChem: timestep -                   249
 ========ADIOS from NWChem: timestep -                   250
    0.50000  309.00 0.00E+00  5745.263 1.0000 1.0000 1.0000-1.2655E+05-3.6237E+03-7.5012E+04 3.4522E+04-4.0491E+04
   solute  1   10638.47   18787.42       0.00   25739.70   55182.09 -185359.97       0.00       0.00   34521.66 -130194.38  -95672.73
 ========ADIOS from NWChem: timestep -                   251
 ========ADIOS from NWChem: timestep -                   252
 ========ADIOS from NWChem: timestep -                   253
 ========ADIOS from NWChem: timestep -                   254
 ========ADIOS from NWChem: timestep -                   255
 ========ADIOS from NWChem: timestep -                   256
 ========ADIOS from NWChem: timestep -                   257
 ========ADIOS from NWChem: timestep -                   258
 ========ADIOS from NWChem: timestep -                   259
 ========ADIOS from NWChem: timestep -                   260
    0.52000  308.41 0.00E+00  5745.253 1.0000 1.0000 1.0000-1.2710E+05-3.6771E+03-7.5395E+04 3.4456E+04-4.0940E+04
   solute  1   10341.71   19197.85       0.00   25837.79   55064.74 -185837.15       0.00       0.00   34455.54 -130459.80  -96004.26
 ========ADIOS from NWChem: timestep -                   261
 ========ADIOS from NWChem: timestep -                   262
 ========ADIOS from NWChem: timestep -                   263
 ========ADIOS from NWChem: timestep -                   264
 ========ADIOS from NWChem: timestep -                   265
 ========ADIOS from NWChem: timestep -                   266
 ========ADIOS from NWChem: timestep -                   267
 ========ADIOS from NWChem: timestep -                   268
 ========ADIOS from NWChem: timestep -                   269
 ========ADIOS from NWChem: timestep -                   270
    0.54000  304.41 0.00E+00  5745.242 1.0000 1.0000 1.0000-1.2767E+05-3.8929E+03-7.5310E+04 3.4009E+04-4.1300E+04
   solute  1   10934.73   19457.42       0.00   25860.96   54376.95 -185939.71       0.00       0.00   34009.23 -129686.59  -95677.35
 ========ADIOS from NWChem: timestep -                   271
 ========ADIOS from NWChem: timestep -                   272
 ========ADIOS from NWChem: timestep -                   273
 ========ADIOS from NWChem: timestep -                   274
 ========ADIOS from NWChem: timestep -                   275
 ========ADIOS from NWChem: timestep -                   276
 ========ADIOS from NWChem: timestep -                   277
 ========ADIOS from NWChem: timestep -                   278
 ========ADIOS from NWChem: timestep -                   279
 ========ADIOS from NWChem: timestep -                   280
    0.56000  307.63 0.00E+00  5745.231 1.0000 1.0000 1.0000-1.2803E+05-4.1317E+03-7.6054E+04 3.4369E+04-4.1685E+04
   solute  1   10682.08   19673.52       0.00   25755.39   54366.58 -186531.45       0.00       0.00   34368.69 -130420.46  -96051.77
 ========ADIOS from NWChem: timestep -                   281
 ========ADIOS from NWChem: timestep -                   282
 ========ADIOS from NWChem: timestep -                   283
 ========ADIOS from NWChem: timestep -                   284
 ========ADIOS from NWChem: timestep -                   285
 ========ADIOS from NWChem: timestep -                   286
 ========ADIOS from NWChem: timestep -                   287
 ========ADIOS from NWChem: timestep -                   288
 ========ADIOS from NWChem: timestep -                   289
 ========ADIOS from NWChem: timestep -                   290
    0.58000  304.02 0.00E+00  5745.221 1.0000 1.0000 1.0000-1.2809E+05-4.0099E+03-7.5530E+04 3.3965E+04-4.1565E+04
   solute  1   11251.78   19750.09       0.00   25567.07   54485.00 -186583.54       0.00       0.00   33965.07 -130014.59  -96049.52
 ========ADIOS from NWChem: timestep -                   291
 ========ADIOS from NWChem: timestep -                   292
 ========ADIOS from NWChem: timestep -                   293
 ========ADIOS from NWChem: timestep -                   294
 ========ADIOS from NWChem: timestep -                   295
 ========ADIOS from NWChem: timestep -                   296
 ========ADIOS from NWChem: timestep -                   297
 ========ADIOS from NWChem: timestep -                   298
 ========ADIOS from NWChem: timestep -                   299
 ========ADIOS from NWChem: timestep -                   300
    0.60000  307.00 0.00E+00  5745.210 1.0000 1.0000 1.0000-1.2877E+05-3.6303E+03-7.6305E+04 3.4298E+04-4.2007E+04
   solute  1   11090.16   19298.45       0.00   25706.49   54757.54 -187157.89       0.00       0.00   34298.33 -131062.80  -96764.47

 MOLECULAR DYNAMICS STATISTICAL INFORMATION                                                                  10/20/20   18:04:48 

                                           Statistics over last      100 steps     Statistics over last      300 steps
                                           Average     RMS fluct     Drift/ps      Average     RMS fluct     Drift/ps

 Step                                    2.50500E+02  2.88661E+01  5.00000E+02   1.50500E+02  8.66021E+01  5.00000E+02             
 Time                                    5.01000E-01  5.77321E-02  1.00000E+00   3.01000E-01  1.73204E-01  1.00000E+00           ps
 Number solute-solute interactions   SR  2.37347E+06  3.96234E+03  1.53916E+04   2.35936E+06  1.23480E+04  6.78242E+04             
 Number of solute SHAKE iterations       1.00000E+00  0.00000E+00  0.00000E+00   1.00000E+00  0.00000E+00  0.00000E+00             
 Volume                                  5.74526E+03  3.08025E-02 -5.33534E-01   5.74537E+03  9.24120E-02 -5.33544E-01        nm**3
 Mass density                            1.96707E+01  1.05461E-04  1.82672E-03   1.96704E+01  3.16389E-04  1.82669E-03      kg/m**3
 Pressure                                0.00000E+00  0.00000E+00  0.00000E+00   0.00000E+00  0.00000E+00  0.00000E+00           Pa
 Pressure scaling                        1.00000E+00  7.05252E-08  2.55821E-13   1.00000E+00  9.53674E-08 -1.89480E-14             
 Temperature                             3.05007E+02  2.60793E+00  2.92973E+01   3.03042E+02  3.17507E+00  9.41923E+00            K
 Temperature solute                      3.05007E+02  2.60793E+00  2.92973E+01   3.03042E+02  3.17507E+00  9.41923E+00            K
 Temperature scaling solute              1.00000E+00  0.00000E+00  0.00000E+00   1.00000E+00  0.00000E+00  0.00000E+00             
 Energy electrostatic                   -1.27588E+05  6.19006E+02 -4.66904E+03  -1.26942E+05  9.03295E+02 -4.02122E+03       kJ/mol
 Energy van der Waals                   -3.79610E+03  2.23429E+02 -1.93820E+03  -3.74182E+03  2.76373E+02 -5.08043E+01       kJ/mol
 Energy potential                       -7.54103E+04  6.04856E+02 -5.74672E+03  -7.51632E+04  5.96685E+02 -1.43029E+03       kJ/mol
 Energy kinetic                          3.40756E+04  2.91360E+02  3.27311E+03   3.38560E+04  3.54721E+02  1.05232E+03       kJ/mol
 Energy total                           -4.13347E+04  4.89270E+02 -2.47361E+03  -4.13072E+04  4.80979E+02 -3.77968E+02       kJ/mol
 Synchronization time                    1.00256E+01  2.05278E-02  3.20285E-02   1.00121E+01  1.71168E-02  6.37099E-02            s
 Efficiency load balancing               1.36001E-01  2.58534E-04 -8.94923E-04   1.36310E-01  3.16593E-03 -1.70293E-03             
 Time per step                           7.73382E-01  1.47525E-03  2.25236E-03   7.72602E-01  2.96206E-03  3.73331E-03            s
 Virial tensor element (1,1)            -4.03572E+02  3.15749E+03  3.82592E+04   2.46229E+02  3.01041E+03  2.66275E+03       kJ/mol
 Virial tensor element (1,2)             1.11778E+03  2.71888E+03 -3.28466E+04  -2.32307E+02  3.82970E+03  2.88230E+03       kJ/mol
 Virial tensor element (1,3)            -7.84745E+02  5.51853E+03 -6.46246E+04   2.46163E+02  5.00154E+03 -1.00896E+04       kJ/mol
 Virial tensor element (2,1)            -5.62638E+02  1.83311E+03  1.15310E+04  -4.69016E+01  1.88462E+03 -5.35814E+02       kJ/mol
 Virial tensor element (2,2)             1.24029E+03  2.33037E+03  2.65740E+04   9.06887E+02  2.84020E+03  1.14161E+03       kJ/mol
 Virial tensor element (2,3)            -1.48779E+03  2.11017E+03  2.15358E+04  -6.44702E+01  2.76261E+03 -4.55072E+03       kJ/mol
 Virial tensor element (3,1)            -2.01060E+03  2.58453E+03 -1.21134E+04   8.52569E+02  4.60814E+03 -1.30825E+04       kJ/mol
 Virial tensor element (3,2)             1.72370E+03  7.96522E+03 -5.65683E+03   4.98826E+02  6.25224E+03  3.23158E+03       kJ/mol
 Virial tensor element (3,3)             2.45370E+03  3.79639E+03  2.35478E+04   9.66231E+02  5.37658E+03  9.84432E+03       kJ/mol
 Kinetic energy element (1,1)            3.74492E+02  5.87293E+01  7.32107E+02   3.58828E+02  5.68713E+01  6.97970E+01       kJ/mol
 Kinetic energy element (1,2)            2.22074E+01  3.11801E+01 -4.84782E+02   7.24316E+00  2.95329E+01  6.62443E+01       kJ/mol
 Kinetic energy element (1,3)           -1.56785E+01  1.67268E+01 -6.85011E+01  -2.06353E+01  2.35642E+01 -3.25455E+01       kJ/mol
 Kinetic energy element (2,1)            2.22074E+01  3.11801E+01 -4.84782E+02   7.24316E+00  2.95329E+01  6.62443E+01       kJ/mol
 Kinetic energy element (2,2)            3.18563E+02  2.91127E+01  9.24706E+01   3.35564E+02  3.52767E+01  6.66211E+00       kJ/mol
 Kinetic energy element (2,3)           -1.38239E+01  2.16683E+01  2.80020E+01  -2.99338E+01  3.23064E+01  7.48281E+01       kJ/mol
 Kinetic energy element (3,1)           -1.56785E+01  1.67268E+01 -6.85011E+01  -2.06353E+01  2.35642E+01 -3.25455E+01       kJ/mol
 Kinetic energy element (3,2)           -1.38239E+01  2.16683E+01  2.80020E+01  -2.99338E+01  3.23064E+01  7.48281E+01       kJ/mol
 Kinetic energy element (3,3)            2.31880E+02  2.07379E+01  1.16184E+02   2.40456E+02  4.05910E+01  3.50708E+01       kJ/mol
 Energy solute   1 intra-electrostatic  -1.73056E+05  5.25247E+02 -4.59312E+03  -1.72296E+05  8.92270E+02 -4.22595E+03       kJ/mol
 Energy solute   1 intra-van der Waals  -1.30214E+04  1.75358E+02 -1.91950E+03  -1.29470E+04  2.33058E+02 -1.33227E+02       kJ/mol
 Energy solute   1 bonds                 1.08566E+04  2.04625E+02  2.25099E+02   1.06291E+04  2.73264E+02  1.17119E+03       kJ/mol
 Energy solute   1 angles                1.93960E+04  2.34387E+02  6.35386E+02   1.91459E+04  3.29978E+02  1.26406E+03       kJ/mol
 Energy solute   1 Urey-Bradley          0.00000E+00  0.00000E+00  0.00000E+00   0.00000E+00  0.00000E+00  0.00000E+00       kJ/mol
 Energy solute   1 proper dihedrals      2.57209E+04  1.33654E+02  3.78298E-02   2.57458E+04  1.57959E+02  2.06486E+02       kJ/mol
 Energy solute   1 improper dihedrals    0.00000E+00  0.00000E+00  0.00000E+00   0.00000E+00  0.00000E+00  0.00000E+00       kJ/mol
 Energy solute   1 van der Waals 3rd     9.22534E+03  1.45301E+02 -1.86977E+01   9.20521E+03  1.20655E+02  8.24225E+01       kJ/mol
 Energy solute   1 electrostatic 3rd     4.54684E+04  2.18745E+02 -7.59279E+01   4.53537E+04  2.27748E+02  2.04725E+02       kJ/mol
 Energy solute   1 van der Waals nb     -1.30214E+04  1.75358E+02 -1.91950E+03  -1.29470E+04  2.33058E+02 -1.33227E+02       kJ/mol
 Energy solute   1 electrostatic nb     -1.73056E+05  5.25247E+02 -4.59312E+03  -1.72296E+05  8.92270E+02 -4.22595E+03       kJ/mol
 Energy solute   1 kinetic               3.40756E+04  2.91360E+02  3.27311E+03   3.38560E+04  3.54721E+02  1.05232E+03       kJ/mol
 Energy solute   1 potential            -7.54103E+04  6.04856E+02 -5.74672E+03  -7.51632E+04  5.96685E+02 -1.43029E+03       kJ/mol
 ========ADIOS from NWChem: timestep -                   301
 ========ADIOS from NWChem: timestep -                   302
 ========ADIOS from NWChem: timestep -                   303
 ========ADIOS from NWChem: timestep -                   304
 ========ADIOS from NWChem: timestep -                   305
 ========ADIOS from NWChem: timestep -                   306
 ========ADIOS from NWChem: timestep -                   307
 ========ADIOS from NWChem: timestep -                   308
 ========ADIOS from NWChem: timestep -                   309
 ========ADIOS from NWChem: timestep -                   310

 MOLECULAR DYNAMICS TIME STEP INFORMATION                                                                    10/20/20   18:04:55 

    Time      Temp    Pres      Volume Tscalw Tscals  Pscal    U(ele)    U(vdW)      U(pot)     U(kin)     U(tot) 
     ps         K      Pa        nm**3                         kJ/mol    kJ/mol      kJ/mol     kJ/mol     kJ/mol 

                 U(bnd)     U(ang)     U(dih)     U(imp)     Ui(3rd)    Ui(non)    Uw(ele)    Uw(vdW)    U(kin)     U(pot)     U(tot)
                 kJ/mol     kJ/mol     kJ/mol     kJ/mol     kJ/mol     kJ/mol     kJ/mol     kJ/mol     kJ/mol     kJ/mol     kJ/mol  

    0.62000  306.54 0.00E+00  5745.199 1.0000 1.0000 1.0000-1.2877E+05-3.4253E+03-7.5956E+04 3.4247E+04-4.1708E+04
   solute  1   10901.78   19684.86       0.00   25651.18   54743.18 -186936.62       0.00       0.00   34247.28 -130698.81  -96451.52
 ========ADIOS from NWChem: timestep -                   311
 ========ADIOS from NWChem: timestep -                   312
 ========ADIOS from NWChem: timestep -                   313
 ========ADIOS from NWChem: timestep -                   314
 ========ADIOS from NWChem: timestep -                   315
 ========ADIOS from NWChem: timestep -                   316
 ========ADIOS from NWChem: timestep -                   317
 ========ADIOS from NWChem: timestep -                   318
 ========ADIOS from NWChem: timestep -                   319
 ========ADIOS from NWChem: timestep -                   320
    0.64000  305.24 0.00E+00  5745.189 1.0000 1.0000 1.0000-1.2792E+05-3.2397E+03-7.4864E+04 3.4102E+04-4.0762E+04
   solute  1   10818.59   19693.65       0.00   25788.55   54190.87 -185355.44       0.00       0.00   34101.74 -129054.65  -94952.91
 ========ADIOS from NWChem: timestep -                   321
 ========ADIOS from NWChem: timestep -                   322
 ========ADIOS from NWChem: timestep -                   323
 ========ADIOS from NWChem: timestep -                   324
 ========ADIOS from NWChem: timestep -                   325
 ========ADIOS from NWChem: timestep -                   326
 ========ADIOS from NWChem: timestep -                   327
 ========ADIOS from NWChem: timestep -                   328
 ========ADIOS from NWChem: timestep -                   329
 ========ADIOS from NWChem: timestep -                   330
    0.66000  307.28 0.00E+00  5745.178 1.0000 1.0000 1.0000-1.2818E+05-3.6145E+03-7.5462E+04 3.4330E+04-4.1132E+04
   solute  1   10764.17   19617.03       0.00   25955.57   54087.89 -185886.73       0.00       0.00   34329.71 -129549.96  -95220.25
 ========ADIOS from NWChem: timestep -                   331
 ========ADIOS from NWChem: timestep -                   332
 ========ADIOS from NWChem: timestep -                   333
 ========ADIOS from NWChem: timestep -                   334
 ========ADIOS from NWChem: timestep -                   335
 ========ADIOS from NWChem: timestep -                   336
 ========ADIOS from NWChem: timestep -                   337
 ========ADIOS from NWChem: timestep -                   338
 ========ADIOS from NWChem: timestep -                   339
 ========ADIOS from NWChem: timestep -                   340
    0.68000  308.99 0.00E+00  5745.167 1.0000 1.0000 1.0000-1.2834E+05-3.6573E+03-7.5880E+04 3.4520E+04-4.1360E+04
   solute  1   10766.66   19499.16       0.00   25848.71   54349.27 -186344.28       0.00       0.00   34520.29 -130229.75  -95709.46
 ========ADIOS from NWChem: timestep -                   341
 ========ADIOS from NWChem: timestep -                   342
 ========ADIOS from NWChem: timestep -                   343
 ========ADIOS from NWChem: timestep -                   344
 ========ADIOS from NWChem: timestep -                   345
 ========ADIOS from NWChem: timestep -                   346
 ========ADIOS from NWChem: timestep -                   347
 ========ADIOS from NWChem: timestep -                   348
 ========ADIOS from NWChem: timestep -                   349
 ========ADIOS from NWChem: timestep -                   350
    0.70000  304.91 0.00E+00  5745.157 1.0000 1.0000 1.0000-1.2943E+05-3.3033E+03-7.6332E+04 3.4065E+04-4.2267E+04
   solute  1   11022.13   19538.42       0.00   25844.07   54281.25 -187018.06       0.00       0.00   34064.79 -130613.44  -96548.65
 ========ADIOS from NWChem: timestep -                   351
 ========ADIOS from NWChem: timestep -                   352
 ========ADIOS from NWChem: timestep -                   353
 ========ADIOS from NWChem: timestep -                   354
 ========ADIOS from NWChem: timestep -                   355
 ========ADIOS from NWChem: timestep -                   356
 ========ADIOS from NWChem: timestep -                   357
 ========ADIOS from NWChem: timestep -                   358
 ========ADIOS from NWChem: timestep -                   359
 ========ADIOS from NWChem: timestep -                   360
    0.72000  306.65 0.00E+00  5745.146 1.0000 1.0000 1.0000-1.2953E+05-3.6714E+03-7.6522E+04 3.4259E+04-4.2263E+04
   solute  1   11088.35   19548.28       0.00   26040.19   53932.59 -187131.70       0.00       0.00   34259.39 -130454.88  -96195.49
 ========ADIOS from NWChem: timestep -                   361
 ========ADIOS from NWChem: timestep -                   362
 ========ADIOS from NWChem: timestep -                   363
 ========ADIOS from NWChem: timestep -                   364
 ========ADIOS from NWChem: timestep -                   365
 ========ADIOS from NWChem: timestep -                   366
 ========ADIOS from NWChem: timestep -                   367
 ========ADIOS from NWChem: timestep -                   368
 ========ADIOS from NWChem: timestep -                   369
 ========ADIOS from NWChem: timestep -                   370
    0.74000  302.66 0.00E+00  5745.135 1.0000 1.0000 1.0000-1.2899E+05-3.7027E+03-7.5943E+04 3.3814E+04-4.2129E+04
   solute  1   11220.89   19763.27       0.00   25770.72   54604.97 -187302.52       0.00       0.00   33813.57 -130547.65  -96734.09
 ========ADIOS from NWChem: timestep -                   371
 ========ADIOS from NWChem: timestep -                   372
 ========ADIOS from NWChem: timestep -                   373
 ========ADIOS from NWChem: timestep -                   374
 ========ADIOS from NWChem: timestep -                   375
 ========ADIOS from NWChem: timestep -                   376
 ========ADIOS from NWChem: timestep -                   377
 ========ADIOS from NWChem: timestep -                   378
 ========ADIOS from NWChem: timestep -                   379
 ========ADIOS from NWChem: timestep -                   380
    0.76000  306.77 0.00E+00  5745.125 1.0000 1.0000 1.0000-1.2815E+05-4.1931E+03-7.5385E+04 3.4273E+04-4.1112E+04
   solute  1   11217.39   19887.31       0.00   25849.04   54364.37 -186702.87       0.00       0.00   34272.67 -129749.13  -95476.46
 ========ADIOS from NWChem: timestep -                   381
 ========ADIOS from NWChem: timestep -                   382
 ========ADIOS from NWChem: timestep -                   383
 ========ADIOS from NWChem: timestep -                   384
 ========ADIOS from NWChem: timestep -                   385
 ========ADIOS from NWChem: timestep -                   386
 ========ADIOS from NWChem: timestep -                   387
 ========ADIOS from NWChem: timestep -                   388
 ========ADIOS from NWChem: timestep -                   389
 ========ADIOS from NWChem: timestep -                   390
    0.78000  307.58 0.00E+00  5745.114 1.0000 1.0000 1.0000-1.2904E+05-4.1314E+03-7.6463E+04 3.4364E+04-4.2099E+04
   solute  1   11126.62   19548.77       0.00   26031.46   54101.31 -187270.72       0.00       0.00   34363.55 -130563.87  -96200.32
 ========ADIOS from NWChem: timestep -                   391
 ========ADIOS from NWChem: timestep -                   392
 ========ADIOS from NWChem: timestep -                   393
 ========ADIOS from NWChem: timestep -                   394
 ========ADIOS from NWChem: timestep -                   395
 ========ADIOS from NWChem: timestep -                   396
 ========ADIOS from NWChem: timestep -                   397
 ========ADIOS from NWChem: timestep -                   398
 ========ADIOS from NWChem: timestep -                   399
 ========ADIOS from NWChem: timestep -                   400
    0.80000  312.57 0.00E+00  5745.103 1.0000 1.0000 1.0000-1.2916E+05-4.1619E+03-7.6772E+04 3.4921E+04-4.1852E+04
   solute  1   10962.82   19560.44       0.00   26025.82   54021.04 -187342.52       0.00       0.00   34920.72 -130793.45  -95872.73

 MOLECULAR DYNAMICS STATISTICAL INFORMATION                                                                  10/20/20   18:06:05 

                                           Statistics over last      100 steps     Statistics over last      400 steps
                                           Average     RMS fluct     Drift/ps      Average     RMS fluct     Drift/ps

 Step                                    3.50500E+02  2.88661E+01  5.00000E+02   2.00500E+02  1.15470E+02  5.00000E+02             
 Time                                    7.01000E-01  5.77321E-02  1.00000E+00   4.01000E-01  2.30939E-01  1.00000E+00           ps
 Number solute-solute interactions   SR  2.37305E+06  3.69324E+03  1.38349E+04   2.36278E+06  1.23667E+04  4.80897E+04             
 Number of solute SHAKE iterations       1.00000E+00  0.00000E+00  0.00000E+00   1.00000E+00  0.00000E+00  0.00000E+00             
 Volume                                  5.74516E+03  3.08009E-02 -5.33524E-01   5.74532E+03  1.23215E-01 -5.33539E-01        nm**3
 Mass density                            1.96711E+01  1.05461E-04  1.82676E-03   1.96706E+01  4.21859E-04  1.82671E-03      kg/m**3
 Pressure                                0.00000E+00  0.00000E+00  0.00000E+00   0.00000E+00  0.00000E+00  0.00000E+00           Pa
 Pressure scaling                        1.00000E+00  7.05252E-08  3.41095E-13   1.00000E+00  3.57628E-08  2.39810E-14             
 Temperature                             3.06964E+02  2.10014E+00  1.51574E+01   3.04022E+02  3.39823E+00  9.72624E+00            K
 Temperature solute                      3.06964E+02  2.10014E+00  1.51574E+01   3.04022E+02  3.39823E+00  9.72624E+00            K
 Temperature scaling solute              1.00000E+00  0.00000E+00  0.00000E+00   1.00000E+00  0.00000E+00  0.00000E+00             
 Energy electrostatic                   -1.28686E+05  4.99026E+02 -4.08916E+03  -1.27378E+05  1.11535E+03 -4.21178E+03       kJ/mol
 Energy van der Waals                   -3.68757E+03  3.09474E+02 -4.48162E+03  -3.72826E+03  2.85975E+02 -1.51692E+01       kJ/mol
 Energy potential                       -7.59319E+04  5.04518E+02 -6.21408E+03  -7.53554E+04  6.64417E+02 -1.78146E+03       kJ/mol
 Energy kinetic                          3.42942E+04  2.34629E+02  1.69339E+03   3.39656E+04  3.79652E+02  1.08662E+03       kJ/mol
 Energy total                           -4.16377E+04  4.71893E+02 -4.52069E+03  -4.13898E+04  4.99656E+02 -6.94836E+02       kJ/mol
 Synchronization time                    1.00453E+01  5.72681E-02  6.11860E-02   1.00204E+01  3.53066E-02  7.45483E-02            s
 Efficiency load balancing               1.35836E-01  4.55157E-04 -1.25705E-03   1.36192E-01  2.75886E-03 -1.40505E-03             
 Time per step                           7.74759E-01  4.07794E-03  4.14583E-03   7.73141E-01  3.40738E-03  4.67331E-03            s
 Virial tensor element (1,1)             3.53526E+02  2.25085E+03 -2.37700E+04   2.73053E+02  2.84001E+03  9.02859E+02       kJ/mol
 Virial tensor element (1,2)            -5.20832E+02  3.26330E+03 -7.97805E+03  -3.04438E+02  3.69836E+03  6.85579E+02       kJ/mol
 Virial tensor element (1,3)             2.16913E+03  4.42177E+03 -1.12858E+04   7.26904E+02  4.93385E+03 -1.72867E+03       kJ/mol
 Virial tensor element (2,1)             1.19628E+03  2.26068E+03  1.67584E+03   2.63895E+02  2.05701E+03  1.54838E+03       kJ/mol
 Virial tensor element (2,2)             2.29474E+02  1.35164E+03  1.06673E+04   7.37534E+02  2.56765E+03 -3.04343E+02       kJ/mol
 Virial tensor element (2,3)             8.43914E+02  2.70478E+03  1.40709E+04   1.62626E+02  2.77628E+03 -4.22565E+02       kJ/mol
 Virial tensor element (3,1)            -7.34054E+01  4.29846E+03  2.17722E+02   6.21075E+02  4.55041E+03 -6.81791E+03       kJ/mol
 Virial tensor element (3,2)            -1.70404E+03  6.03053E+03  5.24992E+04  -5.18914E+01  6.27053E+03 -9.14265E+02       kJ/mol
 Virial tensor element (3,3)             2.42627E+03  5.28078E+03  2.44216E+04   1.33124E+03  5.39000E+03  6.58779E+03       kJ/mol
 Kinetic energy element (1,1)            3.82863E+02  2.53379E+01 -1.22512E+02   3.64837E+02  5.19092E+01  6.13300E+01       kJ/mol
 Kinetic energy element (1,2)            4.47224E+01  3.20862E+01  1.22289E+02   1.66130E+01  3.42769E+01  8.25628E+01       kJ/mol
 Kinetic energy element (1,3)            2.03412E+01  3.04258E+01  1.58718E+02  -1.03912E+01  3.10276E+01  4.63733E+01       kJ/mol
 Kinetic energy element (2,1)            4.47224E+01  3.20862E+01  1.22289E+02   1.66130E+01  3.42769E+01  8.25628E+01       kJ/mol
 Kinetic energy element (2,2)            3.97814E+02  1.54529E+01  1.63696E+02   3.51126E+02  4.14684E+01  9.29087E+01       kJ/mol
 Kinetic energy element (2,3)           -6.18074E+01  1.97289E+01 -2.07841E+02  -3.79022E+01  3.27196E+01 -1.65018E+01       kJ/mol
 Kinetic energy element (3,1)            2.03412E+01  3.04258E+01  1.58718E+02  -1.03912E+01  3.10276E+01  4.63733E+01       kJ/mol
 Kinetic energy element (3,2)           -6.18074E+01  1.97289E+01 -2.07841E+02  -3.79022E+01  3.27196E+01 -1.65018E+01       kJ/mol
 Kinetic energy element (3,3)            2.00916E+02  4.44800E+01  4.50860E+02   2.30571E+02  4.49830E+01 -3.37634E+01       kJ/mol
 Energy solute   1 intra-electrostatic  -1.73719E+05  5.30433E+02 -3.41533E+03  -1.72652E+05  1.02333E+03 -3.83752E+03       kJ/mol
 Energy solute   1 intra-van der Waals  -1.29337E+04  2.83379E+02 -3.98597E+03  -1.29437E+04  2.46671E+02 -9.96997E+01       kJ/mol
 Energy solute   1 bonds                 1.09758E+04  1.97726E+02  1.00285E+03   1.07158E+04  2.97175E+02  9.97275E+02       kJ/mol
 Energy solute   1 angles                1.96368E+04  1.42911E+02 -3.58917E+02   1.92687E+04  3.63255E+02  1.21800E+03       kJ/mol
 Energy solute   1 Urey-Bradley          0.00000E+00  0.00000E+00  0.00000E+00   0.00000E+00  0.00000E+00  0.00000E+00       kJ/mol
 Energy solute   1 proper dihedrals      2.58286E+04  1.52119E+02  1.71277E+03   2.57665E+04  1.60567E+02  2.30218E+02       kJ/mol
 Energy solute   1 improper dihedrals    0.00000E+00  0.00000E+00  0.00000E+00   0.00000E+00  0.00000E+00  0.00000E+00       kJ/mol
 Energy solute   1 van der Waals 3rd     9.24610E+03  7.05904E+01 -4.95651E+02   9.21544E+03  1.11703E+02  8.45305E+01       kJ/mol
 Energy solute   1 electrostatic 3rd     4.50337E+04  2.34519E+02 -6.73828E+02   4.52737E+04  2.68068E+02 -3.74267E+02       kJ/mol
 Energy solute   1 van der Waals nb     -1.29337E+04  2.83379E+02 -3.98597E+03  -1.29437E+04  2.46671E+02 -9.96997E+01       kJ/mol
 Energy solute   1 electrostatic nb     -1.73719E+05  5.30433E+02 -3.41533E+03  -1.72652E+05  1.02333E+03 -3.83752E+03       kJ/mol
 Energy solute   1 kinetic               3.42942E+04  2.34629E+02  1.69339E+03   3.39656E+04  3.79652E+02  1.08662E+03       kJ/mol
 Energy solute   1 potential            -7.59319E+04  5.04518E+02 -6.21408E+03  -7.53554E+04  6.64417E+02 -1.78146E+03       kJ/mol
 ========ADIOS from NWChem: timestep -                   401
 ========ADIOS from NWChem: timestep -                   402
 ========ADIOS from NWChem: timestep -                   403
 ========ADIOS from NWChem: timestep -                   404
 ========ADIOS from NWChem: timestep -                   405
 ========ADIOS from NWChem: timestep -                   406
 ========ADIOS from NWChem: timestep -                   407
 ========ADIOS from NWChem: timestep -                   408
 ========ADIOS from NWChem: timestep -                   409
 ========ADIOS from NWChem: timestep -                   410

 MOLECULAR DYNAMICS TIME STEP INFORMATION                                                                    10/20/20   18:06:13 

    Time      Temp    Pres      Volume Tscalw Tscals  Pscal    U(ele)    U(vdW)      U(pot)     U(kin)     U(tot) 
     ps         K      Pa        nm**3                         kJ/mol    kJ/mol      kJ/mol     kJ/mol     kJ/mol 

                 U(bnd)     U(ang)     U(dih)     U(imp)     Ui(3rd)    Ui(non)    Uw(ele)    Uw(vdW)    U(kin)     U(pot)     U(tot)
                 kJ/mol     kJ/mol     kJ/mol     kJ/mol     kJ/mol     kJ/mol     kJ/mol     kJ/mol     kJ/mol     kJ/mol     kJ/mol  

    0.82000  310.77 0.00E+00  5745.093 1.0000 1.0000 1.0000-1.2861E+05-3.5387E+03-7.5911E+04 3.4719E+04-4.1192E+04
   solute  1   11256.65   19120.43       0.00   25855.22   53974.07 -186117.87       0.00       0.00   34719.49 -129885.56  -95166.08
 ========ADIOS from NWChem: timestep -                   411
 ========ADIOS from NWChem: timestep -                   412
 ========ADIOS from NWChem: timestep -                   413
 ========ADIOS from NWChem: timestep -                   414
 ========ADIOS from NWChem: timestep -                   415
 ========ADIOS from NWChem: timestep -                   416
 ========ADIOS from NWChem: timestep -                   417
 ========ADIOS from NWChem: timestep -                   418
 ========ADIOS from NWChem: timestep -                   419
 ========ADIOS from NWChem: timestep -                   420
    0.84000  307.48 0.00E+00  5745.082 1.0000 1.0000 1.0000-1.2785E+05-3.7382E+03-7.5215E+04 3.4352E+04-4.0862E+04
   solute  1   10674.15   19917.68       0.00   25778.25   54572.18 -186156.89       0.00       0.00   34352.23 -129786.81  -95434.57
 ========ADIOS from NWChem: timestep -                   421
 ========ADIOS from NWChem: timestep -                   422
 ========ADIOS from NWChem: timestep -                   423
 ========ADIOS from NWChem: timestep -                   424
 ========ADIOS from NWChem: timestep -                   425
 ========ADIOS from NWChem: timestep -                   426
 ========ADIOS from NWChem: timestep -                   427
 ========ADIOS from NWChem: timestep -                   428
 ========ADIOS from NWChem: timestep -                   429
 ========ADIOS from NWChem: timestep -                   430
    0.86000  310.48 0.00E+00  5745.071 1.0000 1.0000 1.0000-1.2869E+05-3.6658E+03-7.6016E+04 3.4687E+04-4.1329E+04
   solute  1   10945.04   19515.97       0.00   25878.41   54377.79 -186733.38       0.00       0.00   34686.83 -130393.96  -95707.13
 ========ADIOS from NWChem: timestep -                   431
 ========ADIOS from NWChem: timestep -                   432
 ========ADIOS from NWChem: timestep -                   433
 ========ADIOS from NWChem: timestep -                   434
 ========ADIOS from NWChem: timestep -                   435
 ========ADIOS from NWChem: timestep -                   436
 ========ADIOS from NWChem: timestep -                   437
 ========ADIOS from NWChem: timestep -                   438
 ========ADIOS from NWChem: timestep -                   439
 ========ADIOS from NWChem: timestep -                   440
    0.88000  309.45 0.00E+00  5745.061 1.0000 1.0000 1.0000-1.2784E+05-3.6158E+03-7.5481E+04 3.4572E+04-4.0909E+04
   solute  1   10744.89   19737.99       0.00   25490.31   54902.16 -186356.38       0.00       0.00   34571.93 -130383.19  -95811.26
 ========ADIOS from NWChem: timestep -                   441
 ========ADIOS from NWChem: timestep -                   442
 ========ADIOS from NWChem: timestep -                   443
 ========ADIOS from NWChem: timestep -                   444
 ========ADIOS from NWChem: timestep -                   445
 ========ADIOS from NWChem: timestep -                   446
 ========ADIOS from NWChem: timestep -                   447
 ========ADIOS from NWChem: timestep -                   448
 ========ADIOS from NWChem: timestep -                   449
 ========ADIOS from NWChem: timestep -                   450
    0.90000  306.97 0.00E+00  5745.050 1.0000 1.0000 1.0000-1.2826E+05-4.0916E+03-7.5555E+04 3.4295E+04-4.1260E+04
   solute  1   11158.21   19812.53       0.00   25830.82   54856.65 -187213.11       0.00       0.00   34294.82 -130411.56  -96116.74
 ========ADIOS from NWChem: timestep -                   451
 ========ADIOS from NWChem: timestep -                   452
 ========ADIOS from NWChem: timestep -                   453
 ========ADIOS from NWChem: timestep -                   454
 ========ADIOS from NWChem: timestep -                   455
 ========ADIOS from NWChem: timestep -                   456
 ========ADIOS from NWChem: timestep -                   457
 ========ADIOS from NWChem: timestep -                   458
 ========ADIOS from NWChem: timestep -                   459
 ========ADIOS from NWChem: timestep -                   460
    0.92000  304.91 0.00E+00  5745.039 1.0000 1.0000 1.0000-1.2812E+05-3.7648E+03-7.5174E+04 3.4065E+04-4.1109E+04
   solute  1   11178.76   19709.72       0.00   25819.65   54654.91 -186537.07       0.00       0.00   34064.87 -129828.95  -95764.08
 ========ADIOS from NWChem: timestep -                   461
 ========ADIOS from NWChem: timestep -                   462
 ========ADIOS from NWChem: timestep -                   463
 ========ADIOS from NWChem: timestep -                   464
 ========ADIOS from NWChem: timestep -                   465
 ========ADIOS from NWChem: timestep -                   466
 ========ADIOS from NWChem: timestep -                   467
 ========ADIOS from NWChem: timestep -                   468
 ========ADIOS from NWChem: timestep -                   469
 ========ADIOS from NWChem: timestep -                   470
    0.94000  308.90 0.00E+00  5745.029 1.0000 1.0000 1.0000-1.2834E+05-3.9224E+03-7.5651E+04 3.4511E+04-4.1141E+04
   solute  1   11193.12   19703.64       0.00   25709.41   54569.33 -186826.84       0.00       0.00   34510.58 -130220.66  -95710.08
 ========ADIOS from NWChem: timestep -                   471
 ========ADIOS from NWChem: timestep -                   472
[...]

    Time      Temp    Pres      Volume Tscalw Tscals  Pscal    U(ele)    U(vdW)      U(pot)     U(kin)     U(tot) 
     ps         K      Pa        nm**3                         kJ/mol    kJ/mol      kJ/mol     kJ/mol     kJ/mol 

                 U(bnd)     U(ang)     U(dih)     U(imp)     Ui(3rd)    Ui(non)    Uw(ele)    Uw(vdW)    U(kin)     U(pot)     U(tot)
                 kJ/mol     kJ/mol     kJ/mol     kJ/mol     kJ/mol     kJ/mol     kJ/mol     kJ/mol     kJ/mol     kJ/mol     kJ/mol  

   29.82000  443.62 0.00E+00  5729.641 1.0000 1.0000 1.0000-1.4586E+05-5.3102E+03-7.6507E+04 4.9561E+04-2.6946E+04
   solute  1   19924.98   28098.17       0.00   26636.89   54572.88 -205740.42       0.00       0.00   49561.24 -131080.38  -81519.14
 ========ADIOS from NWChem: timestep -                 14911
 ========ADIOS from NWChem: timestep -                 14912
 ========ADIOS from NWChem: timestep -                 14913
 ========ADIOS from NWChem: timestep -                 14914
 ========ADIOS from NWChem: timestep -                 14915
 ========ADIOS from NWChem: timestep -                 14916
 ========ADIOS from NWChem: timestep -                 14917
 ========ADIOS from NWChem: timestep -                 14918
 ========ADIOS from NWChem: timestep -                 14919
 ========ADIOS from NWChem: timestep -                 14920
   29.84000  437.50 0.00E+00  5729.631 1.0000 1.0000 1.0000-1.4522E+05-5.3854E+03-7.6195E+04 4.8878E+04-2.7317E+04
   solute  1   19873.87   27935.07       0.00   26598.29   54953.52 -205555.60       0.00       0.00   48878.17 -131148.37  -82270.19
 ========ADIOS from NWChem: timestep -                 14921
 ========ADIOS from NWChem: timestep -                 14922
 ========ADIOS from NWChem: timestep -                 14923
 ========ADIOS from NWChem: timestep -                 14924
 ========ADIOS from NWChem: timestep -                 14925
 ========ADIOS from NWChem: timestep -                 14926
 ========ADIOS from NWChem: timestep -                 14927
 ========ADIOS from NWChem: timestep -                 14928
 ========ADIOS from NWChem: timestep -                 14929
 ========ADIOS from NWChem: timestep -                 14930
   29.86000  434.59 0.00E+00  5729.620 1.0000 1.0000 1.0000-1.4536E+05-5.6698E+03-7.5183E+04 4.8553E+04-2.6631E+04
   solute  1   20561.51   28274.74       0.00   27006.61   54087.87 -205113.99       0.00       0.00   48552.65 -129271.14  -80718.49
 ========ADIOS from NWChem: timestep -                 14931
 ========ADIOS from NWChem: timestep -                 14932
 ========ADIOS from NWChem: timestep -                 14933
 ========ADIOS from NWChem: timestep -                 14934
 ========ADIOS from NWChem: timestep -                 14935
 ========ADIOS from NWChem: timestep -                 14936
 ========ADIOS from NWChem: timestep -                 14937
 ========ADIOS from NWChem: timestep -                 14938
 ========ADIOS from NWChem: timestep -                 14939
 ========ADIOS from NWChem: timestep -                 14940
   29.88000  432.21 0.00E+00  5729.610 1.0000 1.0000 1.0000-1.4489E+05-5.6271E+03-7.4737E+04 4.8287E+04-2.6450E+04
   solute  1   19851.89   29377.61       0.00   26549.91   54448.01 -204964.34       0.00       0.00   48287.32 -129184.93  -80897.61
 ========ADIOS from NWChem: timestep -                 14941
 ========ADIOS from NWChem: timestep -                 14942
 ========ADIOS from NWChem: timestep -                 14943
 ========ADIOS from NWChem: timestep -                 14944
 ========ADIOS from NWChem: timestep -                 14945
 ========ADIOS from NWChem: timestep -                 14946
 ========ADIOS from NWChem: timestep -                 14947
 ========ADIOS from NWChem: timestep -                 14948
 ========ADIOS from NWChem: timestep -                 14949
 ========ADIOS from NWChem: timestep -                 14950
   29.90000  435.79 0.00E+00  5729.599 1.0000 1.0000 1.0000-1.4393E+05-5.7677E+03-7.4117E+04 4.8686E+04-2.5430E+04
   solute  1   20034.49   28475.76       0.00   27068.09   54684.22 -204379.25       0.00       0.00   48686.42 -128800.90  -80114.48
 ========ADIOS from NWChem: timestep -                 14951
 ========ADIOS from NWChem: timestep -                 14952
 ========ADIOS from NWChem: timestep -                 14953
 ========ADIOS from NWChem: timestep -                 14954
 ========ADIOS from NWChem: timestep -                 14955
 ========ADIOS from NWChem: timestep -                 14956
 ========ADIOS from NWChem: timestep -                 14957
 ========ADIOS from NWChem: timestep -                 14958
 ========ADIOS from NWChem: timestep -                 14959
 ========ADIOS from NWChem: timestep -                 14960
   29.92000  437.49 0.00E+00  5729.588 1.0000 1.0000 1.0000-1.4406E+05-5.1135E+03-7.4534E+04 4.8877E+04-2.5657E+04
   solute  1   20044.33   28031.52       0.00   26560.70   54664.95 -203835.52       0.00       0.00   48876.95 -129198.98  -80322.02
 ========ADIOS from NWChem: timestep -                 14961
 ========ADIOS from NWChem: timestep -                 14962
 ========ADIOS from NWChem: timestep -                 14963
 ========ADIOS from NWChem: timestep -                 14964
 ========ADIOS from NWChem: timestep -                 14965
 ========ADIOS from NWChem: timestep -                 14966
 ========ADIOS from NWChem: timestep -                 14967
 ========ADIOS from NWChem: timestep -                 14968
 ========ADIOS from NWChem: timestep -                 14969
 ========ADIOS from NWChem: timestep -                 14970
   29.94000  435.41 0.00E+00  5729.578 1.0000 1.0000 1.0000-1.4427E+05-5.1638E+03-7.4118E+04 4.8644E+04-2.5474E+04
   solute  1   20044.99   28487.86       0.00   26780.03   54277.94 -203708.94       0.00       0.00   48643.80 -128396.06  -79752.26
 ========ADIOS from NWChem: timestep -                 14971
 ========ADIOS from NWChem: timestep -                 14972
 ========ADIOS from NWChem: timestep -                 14973
 ========ADIOS from NWChem: timestep -                 14974
 ========ADIOS from NWChem: timestep -                 14975
 ========ADIOS from NWChem: timestep -                 14976
 ========ADIOS from NWChem: timestep -                 14977
 ========ADIOS from NWChem: timestep -                 14978
 ========ADIOS from NWChem: timestep -                 14979
 ========ADIOS from NWChem: timestep -                 14980
   29.96000  438.40 0.00E+00  5729.567 1.0000 1.0000 1.0000-1.4380E+05-5.3614E+03-7.4258E+04 4.8978E+04-2.5280E+04
   solute  1   20393.87   27792.34       0.00   26713.84   54572.82 -203731.06       0.00       0.00   48977.83 -128831.01  -79853.18
 ========ADIOS from NWChem: timestep -                 14981
 ========ADIOS from NWChem: timestep -                 14982
 ========ADIOS from NWChem: timestep -                 14983
 ========ADIOS from NWChem: timestep -                 14984
 ========ADIOS from NWChem: timestep -                 14985
 ========ADIOS from NWChem: timestep -                 14986
 ========ADIOS from NWChem: timestep -                 14987
 ========ADIOS from NWChem: timestep -                 14988
 ========ADIOS from NWChem: timestep -                 14989
 ========ADIOS from NWChem: timestep -                 14990
   29.98000  432.96 0.00E+00  5729.556 1.0000 1.0000 1.0000-1.4605E+05-5.0851E+03-7.5382E+04 4.8371E+04-2.7011E+04
   solute  1   20002.56   28813.37       0.00   26935.71   54173.67 -205307.31       0.00       0.00   48370.54 -129555.68  -81185.14
 ========ADIOS from NWChem: timestep -                 14991
 ========ADIOS from NWChem: timestep -                 14992
 ========ADIOS from NWChem: timestep -                 14993
 ========ADIOS from NWChem: timestep -                 14994
 ========ADIOS from NWChem: timestep -                 14995
 ========ADIOS from NWChem: timestep -                 14996
 ========ADIOS from NWChem: timestep -                 14997
 ========ADIOS from NWChem: timestep -                 14998
 ========ADIOS from NWChem: timestep -                 14999
 ========ADIOS from NWChem: timestep -                 15000
   30.00000  437.33 0.00E+00  5729.546 1.0000 1.0000 1.0000-1.4577E+05-5.1929E+03-7.5466E+04 4.8859E+04-2.6607E+04
   solute  1   20297.96   28758.22       0.00   26440.67   54236.30 -205199.34       0.00       0.00   48858.91 -129702.50  -80843.59

 MOLECULAR DYNAMICS STATISTICAL INFORMATION                                                                  10/20/20   21:17:21 

                                           Statistics over last      100 steps     Statistics over last    15000 steps
                                           Average     RMS fluct     Drift/ps      Average     RMS fluct     Drift/ps

 Step                                    1.49505E+04  2.88661E+01  5.00000E+02   7.50050E+03  4.33013E+03  5.00000E+02             
 Time                                    2.99010E+01  5.77321E-02  1.00000E+00   1.50010E+01  8.66025E+00  1.00000E+00           ps
 Number solute-solute interactions   SR  2.81349E+06  4.57292E+03 -5.50540E+04   2.68449E+06  1.36378E+05  1.43036E+04             
 Number of solute SHAKE iterations       1.00000E+00  0.00000E+00  0.00000E+00   1.00000E+00  0.00000E+00  0.00000E+00             
 Volume                                  5.72960E+03  3.07184E-02 -5.32079E-01   5.73753E+03  4.61432E+00 -5.32816E-01        nm**3
 Mass density                            1.97245E+01  1.05749E-04  1.83172E-03   1.96972E+01  1.58412E-02  1.82918E-03      kg/m**3
 Pressure                                0.00000E+00  0.00000E+00  0.00000E+00   0.00000E+00  0.00000E+00  0.00000E+00           Pa
 Pressure scaling                        1.00000E+00  7.05252E-08  9.55065E-12   1.00000E+00  4.68499E-07 -3.44848E-14             
 Temperature                             4.36220E+02  2.53547E+00 -2.87501E+00   3.77748E+02  3.68043E+01  4.21577E+00            K
 Temperature solute                      4.36220E+02  2.53547E+00 -2.87501E+00   3.77748E+02  3.68043E+01  4.21577E+00            K
 Temperature scaling solute              1.00000E+00  0.00000E+00  0.00000E+00   1.00000E+00  0.00000E+00  0.00000E+00             
 Energy electrostatic                   -1.44952E+05  8.82717E+02  5.08825E+03  -1.40009E+05  4.99051E+03 -5.37535E+02       kJ/mol
 Energy van der Waals                   -5.33308E+03  2.69975E+02  1.01023E+03  -5.06605E+03  4.81109E+02 -3.32406E+01       kJ/mol
 Energy potential                       -7.50147E+04  8.36161E+02  7.55594E+03  -7.74230E+04  1.26472E+03  2.65998E+01       kJ/mol
 Energy kinetic                          4.87348E+04  2.83265E+02 -3.21199E+02   4.22023E+04  4.11180E+03  4.70989E+02       kJ/mol
 Energy total                           -2.62799E+04  8.08187E+02  7.23474E+03  -3.52207E+04  4.41633E+03  4.97589E+02       kJ/mol
 Synchronization time                    1.02181E+01  3.86497E-03 -1.83463E-02   1.01774E+01  6.42274E-02  5.94629E-03            s
 Efficiency load balancing               1.36260E-01  9.66932E-04  6.77634E-05   1.35950E-01  9.38248E-04  7.94007E-06             
 Time per step                           7.88476E-01  9.03453E-04 -7.94437E-04   7.85053E-01  4.99446E-03  4.66083E-04            s
 Virial tensor element (1,1)            -1.07517E+02  2.40124E+03 -1.79628E+04   3.32506E+02  2.62556E+03 -5.15481E+00       kJ/mol
 Virial tensor element (1,2)            -2.74278E+02  1.41265E+03 -4.72224E+03   1.61083E+01  2.70591E+03 -1.27487E+00       kJ/mol
 Virial tensor element (1,3)            -4.15687E+01  1.77104E+03 -8.07539E+03   1.30673E+01  2.94052E+03 -3.13149E+00       kJ/mol
 Virial tensor element (2,1)             1.98711E+03  5.83449E+03 -7.20038E+03   5.71195E+01  4.72373E+03  3.03978E+00       kJ/mol
 Virial tensor element (2,2)            -3.30962E+03  7.22854E+03 -4.49918E+04   2.68754E+02  5.94672E+03 -1.45066E+01       kJ/mol
 Virial tensor element (2,3)             6.54659E+02  5.50699E+03  1.22258E+04   2.19788E+01  5.24059E+03 -9.28146E+00       kJ/mol
 Virial tensor element (3,1)            -1.10245E+03  2.79663E+03 -2.87387E+04  -3.19443E+01  4.57801E+03  3.62042E+00       kJ/mol
 Virial tensor element (3,2)            -2.10506E+03  4.37356E+03  7.59894E+03  -2.33377E+01  4.89558E+03 -5.67905E+00       kJ/mol
 Virial tensor element (3,3)            -1.28858E+03  4.69963E+03 -3.62098E+04   3.38463E+02  4.65241E+03 -8.16085E+00       kJ/mol
 Kinetic energy element (1,1)            1.70918E+02  1.37978E+01  1.24730E+02   1.74984E+02  5.54647E+01 -3.38238E+00       kJ/mol
 Kinetic energy element (1,2)           -2.64553E+01  2.20021E+01 -2.25563E+02   4.17087E+00  2.62554E+01 -2.02129E-01       kJ/mol
 Kinetic energy element (1,3)           -6.16827E+00  3.40475E+01 -4.01481E+02   5.11109E-01  2.66510E+01  2.76384E-02       kJ/mol
 Kinetic energy element (2,1)           -2.64553E+01  2.20021E+01 -2.25563E+02   4.17087E+00  2.62554E+01 -2.02129E-01       kJ/mol
 Kinetic energy element (2,2)            1.49481E+02  2.91312E+01  2.57272E+02   1.99009E+02  6.16134E+01 -5.00995E+00       kJ/mol
 Kinetic energy element (2,3)            2.22430E+01  1.50552E+01  8.94679E+01   9.44140E-01  3.11758E+01  5.13420E-01       kJ/mol
 Kinetic energy element (3,1)           -6.16827E+00  3.40475E+01 -4.01481E+02   5.11109E-01  2.66510E+01  2.76384E-02       kJ/mol
 Kinetic energy element (3,2)            2.22430E+01  1.50552E+01  8.94679E+01   9.44140E-01  3.11758E+01  5.13420E-01       kJ/mol
 Kinetic energy element (3,3)            1.31304E+02  1.64588E+01 -1.58701E+02   1.69790E+02  4.41865E+01 -2.46511E+00       kJ/mol
 Energy solute   1 intra-electrostatic  -1.89946E+05  7.79107E+02  5.28170E+03  -1.85302E+05  4.95579E+03 -5.27699E+02       kJ/mol
 Energy solute   1 intra-van der Waals  -1.48474E+04  2.17411E+02  1.93518E+03  -1.44296E+04  5.24141E+02 -4.24589E+01       kJ/mol
 Energy solute   1 bonds                 2.01387E+04  2.75287E+02  9.12413E+02   1.65449E+04  2.63673E+03  2.96423E+02       kJ/mol
 Energy solute   1 angles                2.84460E+04  3.67415E+02  1.04247E+03   2.49502E+04  2.44597E+03  2.75064E+02       kJ/mol
 Energy solute   1 Urey-Bradley          0.00000E+00  0.00000E+00  0.00000E+00   0.00000E+00  0.00000E+00  0.00000E+00       kJ/mol
 Energy solute   1 proper dihedrals      2.66853E+04  1.81217E+02 -4.97419E+02   2.61570E+04  3.00486E+02  2.58882E+01       kJ/mol
 Energy solute   1 improper dihedrals    0.00000E+00  0.00000E+00  0.00000E+00   0.00000E+00  0.00000E+00  0.00000E+00       kJ/mol
 Energy solute   1 van der Waals 3rd     9.51431E+03  1.10511E+02 -9.24957E+02   9.36356E+03  1.27089E+02  9.21830E+00       kJ/mol
 Energy solute   1 electrostatic 3rd     4.49939E+04  2.33540E+02 -1.93453E+02   4.52926E+04  3.20311E+02 -9.83669E+00       kJ/mol
 Energy solute   1 van der Waals nb     -1.48474E+04  2.17411E+02  1.93518E+03  -1.44296E+04  5.24141E+02 -4.24589E+01       kJ/mol
 Energy solute   1 electrostatic nb     -1.89946E+05  7.79107E+02  5.28170E+03  -1.85302E+05  4.95579E+03 -5.27699E+02       kJ/mol
 Energy solute   1 kinetic               4.87348E+04  2.83265E+02 -3.21199E+02   4.22023E+04  4.11180E+03  4.70989E+02       kJ/mol
 Energy solute   1 potential            -7.50147E+04  8.36161E+02  7.55594E+03  -7.74230E+04  1.26472E+03  2.65998E+01       kJ/mol

 TIMING ANALYSIS

                    Number of calls         Average times per call

                                               Wall            CPU

 MD step                15000                 0.786          0.783

    6  GA coords            3                 0.006          0.006
   33  prefetch           629                 0.000          0.000
   34  wait               629                 0.000          0.000
   35  accumulate         629                 0.000          0.000
   36  get                139                 0.000          0.000
   37  forces             139                 0.000          0.000
   38  accumulate         139                 0.000          0.000
  201  MD step          15000                 0.786          0.783
  202  barrier          15000                 0.736          0.735
  204  barrier          15000                 0.736          0.735

 Task  times  cpu:    11751.7s     wall:    11842.1s


                                NWChem Input Module
                                -------------------


 Summary of allocated global arrays
-----------------------------------
  No active global arrays



                         GA Statistics for process    0
                         ------------------------------

       create   destroy   get      put      acc     scatter   gather  read&inc
calls:    7        7     3.61e+05 4.78e+04 3.00e+04    0        0        0     
number of processes/call 1.00e+00 1.00e+00 1.00e+00 0.00e+00 0.00e+00
bytes total:             1.28e+10 3.78e+09 4.80e+09 0.00e+00 0.00e+00 0.00e+00
bytes remote:            7.95e+09 1.78e+06 0.00e+00 0.00e+00 0.00e+00 0.00e+00
Max memory consumed for GA by this process: 4406256 bytes

MA_summarize_allocated_blocks: starting scan ...
MA_summarize_allocated_blocks: scan completed: 0 heap blocks, 0 stack blocks
MA usage statistics:

	allocation statistics:
					      heap	     stack
					      ----	     -----
	current number of blocks	         0	         0
	maximum number of blocks	        22	        96
	current total bytes		         0	         0
	maximum total bytes		 101731400	 197014456
	maximum total K-bytes		    101732	    197015
	maximum total M-bytes		       102	       198


                                     CITATION
                                     --------
                Please cite the following reference when publishing
                           results obtained with NWChem:

                 M. Valiev, E.J. Bylaska, N. Govind, K. Kowalski,
              T.P. Straatsma, H.J.J. van Dam, D. Wang, J. Nieplocha,
                        E. Apra, T.L. Windus, W.A. de Jong
                 "NWChem: a comprehensive and scalable open-source
                  solution for large scale molecular simulations"
                      Comput. Phys. Commun. 181, 1477 (2010)
                           doi:10.1016/j.cpc.2010.04.018

                                      AUTHORS
                                      -------
          E. Apra, E. J. Bylaska, W. A. de Jong, N. Govind, K. Kowalski,
       T. P. Straatsma, M. Valiev, H. J. J. van Dam, D. Wang, T. L. Windus,
        J. Hammond, J. Autschbach, K. Bhaskaran-Nair, J. Brabec, K. Lopata,
    S. A. Fischer, S. Krishnamoorthy, M. Jacquelin, W. Ma, M. Klemm, O. Villa,
      Y. Chen, V. Anisimov, F. Aquino, S. Hirata, M. T. Hackler, V. Konjkov,
            D. Mejia-Rodriguez, T. Risthaus, M. Malagoli, A. Marenich,
   A. Otero-de-la-Roza, J. Mullin, P. Nichols, R. Peverati, J. Pittner, Y. Zhao,
        P.-D. Fan, A. Fonari, M. J. Williamson, R. J. Harrison, J. R. Rehr,
      M. Dupuis, D. Silverstein, D. M. A. Smith, J. Nieplocha, V. Tipparaju,
    M. Krishnan, B. E. Van Kuiken, A. Vazquez-Mayagoitia, L. Jensen, M. Swart,
      Q. Wu, T. Van Voorhis, A. A. Auer, M. Nooijen, L. D. Crosby, E. Brown,
      G. Cisneros, G. I. Fann, H. Fruchtl, J. Garza, K. Hirao, R. A. Kendall,
      J. A. Nichols, K. Tsemekhman, K. Wolinski, J. Anchell, D. E. Bernholdt,
      P. Borowski, T. Clark, D. Clerc, H. Dachsel, M. J. O. Deegan, K. Dyall,
    D. Elwood, E. Glendening, M. Gutowski, A. C. Hess, J. Jaffe, B. G. Johnson,
     J. Ju, R. Kobayashi, R. Kutteh, Z. Lin, R. Littlefield, X. Long, B. Meng,
      T. Nakajima, S. Niu, L. Pollack, M. Rosing, K. Glaesemann, G. Sandrone,
      M. Stave, H. Taylor, G. Thomas, J. H. van Lenthe, A. T. Wong, Z. Zhang.

 Total times  cpu:    11751.9s     wall:    11844.8s
