 argument  1 = /home/hvandam/nwchem-1/QA/tests/1h9t/1h9t_eq.nw



============================== echo of input deck ==============================
echo
start md_dat

set sp:adios_mode Null

md
  msa 10000
  system 1h9t_md
  leapfrog
  step 0.002 equil 0 data 1000
  isotherm 298.15 trelax 0.1
  isobar
  noshake
  #print step 10 extra out6
  print step 10 out6
  record rest 100 coord 1
  #veladj 7715 8958 0.0  0.125 0.0
end

task md dynamics

================================================================================


                                         
                                         


              Northwest Computational Chemistry Package (NWChem) 6.8
              ------------------------------------------------------


                    Environmental Molecular Sciences Laboratory
                       Pacific Northwest National Laboratory
                                Richland, WA 99352

                              Copyright (c) 1994-2018
                       Pacific Northwest National Laboratory
                            Battelle Memorial Institute

             NWChem is an open-source computational chemistry package
                        distributed under the terms of the
                      Educational Community License (ECL) 2.0
             A copy of the license is included with this distribution
                              in the LICENSE.TXT file

                                  ACKNOWLEDGMENT
                                  --------------

            This software and its documentation were developed at the
            EMSL at Pacific Northwest National Laboratory, a multiprogram
            national laboratory, operated for the U.S. Department of Energy
            by Battelle under Contract Number DE-AC05-76RL01830. Support
            for this work was provided by the Department of Energy Office
            of Biological and Environmental Research, Office of Basic
            Energy Sciences, and the Office of Advanced Scientific Computing.


           Job information
           ---------------

    hostname        = node001
    program         = /home/hvandam/nwchem-1/bin/LINUX64/nwchem
    date            = Tue Oct 20 13:01:41 2020

    compiled        = Tue_Oct_20_10:55:14_2020
    source          = /home/hvandam/nwchem-1
    nwchem branch   = Development
    nwchem revision = nwchem_on_git-629-g59d5e6d
    ga revision     = 5.6.5
    use scalapack   = F
    input           = /home/hvandam/nwchem-1/QA/tests/1h9t/1h9t_eq.nw
    prefix          = md_dat.
    data base       = ./md_dat.db
    status          = startup
    nproc           =       15
    time left       =     -1s



           Memory information
           ------------------

    heap     =   13107194 doubles =    100.0 Mbytes
    stack    =   13107199 doubles =    100.0 Mbytes
    global   =   26214400 doubles =    200.0 Mbytes (distinct from heap & stack)
    total    =   52428793 doubles =    400.0 Mbytes
    verify   = yes
    hardfail = no 


           Directory information
           ---------------------

  0 permanent = .
  0 scratch   = .




                                NWChem Input Module
                                -------------------



 MOLECULAR DYNAMICS                                                                                          10/20/20   13:01:42 

 Title   NWChem:MD input                                                                                     10/20/20   13:01:42 
                                                                                         
                                                                                         

 System 1h9t_md

 Force field parameter set    1

 Initial simulation

 Number of equilibration steps       0
 Number of data gathering steps   1000

 Cutoff radius     0.900000 nm

 Isothermal ensemble external temperature   298.150000  298.150000 K
 Temperature relaxation time solvent          0.100000 ps
 Temperature relaxation time solute           0.100000 ps
 Temperature annealing between times          0.000000    0.000000 ps
 Isobaric ensemble external pressure  1.02500E+05 Pa
 Pressure relaxation time     0.500000 ps
 Compressebility  4.53000E-10 m**2/N

 Leap-frog integration

 Maximum number of solvent SHAKE iterations   100, solvent SHAKE tolerance     0.000001 nm
 Maximum number of solute SHAKE iterations    100, solute SHAKE tolerance      0.000001 nm

 Frequency update pair lists                              1
 Frequency removal overall motion                         0
 Frequency solute centering                               0
 Frequency printing step information                     10
 Frequency printing statistical information             100
 Frequency recording restart file                       100
 Frequency recording system coordinates                   1
 Frequency recording solute coordinates                   1
 Frequency recording system velocities                    0
 Frequency recording solute velocities                    0
 Frequency recording system forces                        0
 Frequency recording solute forces                        0

 LOAD BALANCING

 Redistribution of inter-processor box pairs: retry      10
 Resizing of processor domains: smallest scaling          0.750000

 Load balancing frequency     0

 Load balancing based on last synchronization time

 Distribution information

 Short range cutoff                   0.900000
 Segment size                         1.233822
 Long range cutoff                    0.900000
 Box size rbox                        0.000000

 Box dimension                        8.297000   16.682600   41.517000

 Initial cell size                    1.516911

 Initial cell distribution            5   10   27
 Final cell distribution              5    9   25

 Minimum cell size                    1.516911    1.516911    1.516911

 ARRAY DIMENSION INFORMATION

 Number cells per processor:       75
 Number of buffer cells:            6
 Total number of cells:          1125
 Dimension solvent local:           1, global:      1
 Dimension solute local:        10000, global:  10000

 TOPOLOGY FILE INFORMATION

 Title        NWChem topology file for 1h9t_md                                                
                                                                                              
              Generated by the NWChem prepare module                                          
 Version          4.600000
 Date         10/20/20   12:59:29 
 Force field  amber     

 RESTART FILE INFORMATION

 Title        Restart file                                                                    
                                                                                              
                                                                                              
 Version          4.200000
 Date         10/20/20   13:00:43 

 History

 hvandam           10/20/20   13:00:43            0 em      83 +       0 1h9t_md                             

 TOPOLOGY

 DATA PACKING

 Packing solute in   3 integers :    6   8   1
               significant bits :   15  12   5   7   7  11  11  11   5   2   2  10  10  10   2
 Packing solvent in  1 integers :    4
               significant bits :    2  12   5   5

 POSITIONAL CONSTRAINTS
 Number of fix directives is     0

 Solute fix applied to         0 out of     8958 atoms
 Solvent fix applied to        0 out of        0 molecules


 DOMAIN DECOMPOSITION

 Processor count    15 =    1 x    3 x    5
 Cell count       1125 =    5 x    9 x   25

 Minimum cell size     1.518428 x    1.518428 x    1.518428

 Warning: 

 Reduced number of cells in y-dimension:     9
 Reduced number of cells in z-dimension:    25

 Read previous box pair list


 Initial distribution p:b(w+s)

      0:   75(      0+      0)      1:   75(      0+      0)      2:   75(      0+      0)      3:   75(      0+      0)
      4:   75(      0+      0)      5:   75(      0+      0)      6:   75(      0+      0)      7:   75(      0+      0)
      8:   75(      0+      0)      9:   75(      0+      0)     10:   75(      0+      0)     11:   75(      0+     22)
     12:   75(      0+      0)     13:   75(      0+   2031)     14:   75(      0+   6905)

 Dimension workarrays solvent      1
                      solute   10000
 ========ADIOS from NWChem: timestep -                     1
 ADIOS mode: Null
 ========ADIOS from NWChem: timestep -                     2
 ========ADIOS from NWChem: timestep -                     3
 ========ADIOS from NWChem: timestep -                     4
 ========ADIOS from NWChem: timestep -                     5
 ========ADIOS from NWChem: timestep -                     6
 ========ADIOS from NWChem: timestep -                     7
 ========ADIOS from NWChem: timestep -                     8
 ========ADIOS from NWChem: timestep -                     9
 ========ADIOS from NWChem: timestep -                    10

 MOLECULAR DYNAMICS TIME STEP INFORMATION                                                                    10/20/20   13:01:50 

    Time      Temp    Pres      Volume Tscalw Tscals  Pscal    U(ele)    U(vdW)      U(pot)     U(kin)     U(tot) 
     ps         K      Pa        nm**3                         kJ/mol    kJ/mol      kJ/mol     kJ/mol     kJ/mol 

    0.02000   57.15 0.00E+00  5746.587 1.0430 1.0430 1.0000-9.4398E+04-1.1426E+04-7.4458E+04 6.3844E+03-6.8073E+04
 ========ADIOS from NWChem: timestep -                    11
 ========ADIOS from NWChem: timestep -                    12
 ========ADIOS from NWChem: timestep -                    13
 ========ADIOS from NWChem: timestep -                    14
 ========ADIOS from NWChem: timestep -                    15
 ========ADIOS from NWChem: timestep -                    16
 ========ADIOS from NWChem: timestep -                    17
 ========ADIOS from NWChem: timestep -                    18
 ========ADIOS from NWChem: timestep -                    19
 ========ADIOS from NWChem: timestep -                    20
    0.04000  120.73 0.00E+00  5746.576 1.0197 1.0197 1.0000-9.7781E+04-1.0500E+04-7.7204E+04 1.3488E+04-6.3716E+04
 ========ADIOS from NWChem: timestep -                    21
 ========ADIOS from NWChem: timestep -                    22
 ========ADIOS from NWChem: timestep -                    23
 ========ADIOS from NWChem: timestep -                    24
 ========ADIOS from NWChem: timestep -                    25
 ========ADIOS from NWChem: timestep -                    26
 ========ADIOS from NWChem: timestep -                    27
 ========ADIOS from NWChem: timestep -                    28
 ========ADIOS from NWChem: timestep -                    29
 ========ADIOS from NWChem: timestep -                    30
    0.06000  143.28 0.00E+00  5746.566 1.0107 1.0107 1.0000-1.0200E+05-9.4880E+03-7.5776E+04 1.6007E+04-5.9769E+04
 ========ADIOS from NWChem: timestep -                    31
 ========ADIOS from NWChem: timestep -                    32
 ========ADIOS from NWChem: timestep -                    33
 ========ADIOS from NWChem: timestep -                    34
 ========ADIOS from NWChem: timestep -                    35
 ========ADIOS from NWChem: timestep -                    36
 ========ADIOS from NWChem: timestep -                    37
 ========ADIOS from NWChem: timestep -                    38
 ========ADIOS from NWChem: timestep -                    39
 ========ADIOS from NWChem: timestep -                    40
    0.08000  174.11 0.00E+00  5746.555 1.0076 1.0076 1.0000-1.0453E+05-9.2373E+03-7.7532E+04 1.9452E+04-5.8081E+04
 ========ADIOS from NWChem: timestep -                    41
 ========ADIOS from NWChem: timestep -                    42
 ========ADIOS from NWChem: timestep -                    43
 ========ADIOS from NWChem: timestep -                    44
 ========ADIOS from NWChem: timestep -                    45
 ========ADIOS from NWChem: timestep -                    46
 ========ADIOS from NWChem: timestep -                    47
 ========ADIOS from NWChem: timestep -                    48
 ========ADIOS from NWChem: timestep -                    49
 ========ADIOS from NWChem: timestep -                    50
    0.10000  194.98 0.00E+00  5746.544 1.0050 1.0050 1.0000-1.0561E+05-9.1171E+03-7.7290E+04 2.1784E+04-5.5506E+04
 ========ADIOS from NWChem: timestep -                    51
 ========ADIOS from NWChem: timestep -                    52
 ========ADIOS from NWChem: timestep -                    53
 ========ADIOS from NWChem: timestep -                    54
 ========ADIOS from NWChem: timestep -                    55
 ========ADIOS from NWChem: timestep -                    56
 ========ADIOS from NWChem: timestep -                    57
 ========ADIOS from NWChem: timestep -                    58
 ========ADIOS from NWChem: timestep -                    59
 ========ADIOS from NWChem: timestep -                    60
    0.12000  216.84 0.00E+00  5746.534 1.0040 1.0040 1.0000-1.0738E+05-9.0048E+03-7.8117E+04 2.4225E+04-5.3892E+04
 ========ADIOS from NWChem: timestep -                    61
 ========ADIOS from NWChem: timestep -                    62
 ========ADIOS from NWChem: timestep -                    63
 ========ADIOS from NWChem: timestep -                    64
 ========ADIOS from NWChem: timestep -                    65
 ========ADIOS from NWChem: timestep -                    66
 ========ADIOS from NWChem: timestep -                    67
 ========ADIOS from NWChem: timestep -                    68
 ========ADIOS from NWChem: timestep -                    69
 ========ADIOS from NWChem: timestep -                    70
    0.14000  237.10 0.00E+00  5746.523 1.0028 1.0028 1.0000-1.0891E+05-8.7347E+03-7.8683E+04 2.6489E+04-5.2194E+04
 ========ADIOS from NWChem: timestep -                    71
 ========ADIOS from NWChem: timestep -                    72
 ========ADIOS from NWChem: timestep -                    73
 ========ADIOS from NWChem: timestep -                    74
 ========ADIOS from NWChem: timestep -                    75
 ========ADIOS from NWChem: timestep -                    76
 ========ADIOS from NWChem: timestep -                    77
 ========ADIOS from NWChem: timestep -                    78
 ========ADIOS from NWChem: timestep -                    79
 ========ADIOS from NWChem: timestep -                    80
    0.16000  253.89 0.00E+00  5746.512 1.0018 1.0018 1.0000-1.1116E+05-8.2813E+03-7.9323E+04 2.8365E+04-5.0958E+04
 ========ADIOS from NWChem: timestep -                    81
 ========ADIOS from NWChem: timestep -                    82
 ========ADIOS from NWChem: timestep -                    83
 ========ADIOS from NWChem: timestep -                    84
 ========ADIOS from NWChem: timestep -                    85
 ========ADIOS from NWChem: timestep -                    86
 ========ADIOS from NWChem: timestep -                    87
 ========ADIOS from NWChem: timestep -                    88
 ========ADIOS from NWChem: timestep -                    89
 ========ADIOS from NWChem: timestep -                    90
    0.18000  279.53 0.00E+00  5746.502 1.0013 1.0013 1.0000-1.1221E+05-8.1775E+03-8.1632E+04 3.1229E+04-5.0403E+04
 ========ADIOS from NWChem: timestep -                    91
 ========ADIOS from NWChem: timestep -                    92
 ========ADIOS from NWChem: timestep -                    93
 ========ADIOS from NWChem: timestep -                    94
 ========ADIOS from NWChem: timestep -                    95
 ========ADIOS from NWChem: timestep -                    96
 ========ADIOS from NWChem: timestep -                    97
 ========ADIOS from NWChem: timestep -                    98
 ========ADIOS from NWChem: timestep -                    99
 ========ADIOS from NWChem: timestep -                   100
    0.20000  277.32 0.00E+00  5746.491 1.0004 1.0004 1.0000-1.1466E+05-7.0938E+03-8.0783E+04 3.0982E+04-4.9801E+04

 MOLECULAR DYNAMICS STATISTICAL INFORMATION                                                                  10/20/20   13:03:01 

                                           Statistics over last      100 steps     Statistics over last      100 steps
                                           Average     RMS fluct     Drift/ps      Average     RMS fluct     Drift/ps

 Step                                    5.05000E+01  2.88661E+01  5.00000E+02   5.05000E+01  2.88661E+01  5.00000E+02             
 Time                                    1.01000E-01  5.77321E-02  1.00000E+00   1.01000E-01  5.77321E-02  1.00000E+00           ps
 Number solute-solute interactions   SR  2.43467E+06  4.25470E+03  4.02082E+04   2.43467E+06  4.25470E+03  4.02082E+04             
 Number of solute SHAKE iterations       1.00000E+00  0.00000E+00  0.00000E+00   1.00000E+00  0.00000E+00  0.00000E+00             
 Volume                                  5.74654E+03  3.08090E-02 -5.33653E-01   5.74654E+03  3.08090E-02 -5.33653E-01        nm**3
 Mass density                            1.96663E+01  1.05437E-04  1.82632E-03   1.96663E+01  1.05437E-04  1.82632E-03      kg/m**3
 Pressure                                0.00000E+00  0.00000E+00  0.00000E+00   0.00000E+00  0.00000E+00  0.00000E+00           Pa
 Pressure scaling                        1.00000E+00  7.05252E-08  5.86256E-14   1.00000E+00  7.05252E-08  5.86256E-14             
 Temperature                             1.82115E+02  7.69263E+01  1.29480E+03   1.82115E+02  7.69263E+01  1.29480E+03            K
 Temperature solute                      1.82115E+02  7.69263E+01  1.29480E+03   1.82115E+02  7.69263E+01  1.29480E+03            K
 Temperature scaling solute              1.05490E+00  3.13764E-01 -1.45244E+00   1.05490E+00  3.13764E-01 -1.45244E+00             
 Energy electrostatic                   -1.04812E+05  6.25612E+03 -1.07077E+05  -1.04812E+05  6.25612E+03 -1.07077E+05       kJ/mol
 Energy van der Waals                   -9.30204E+03  1.19213E+03  1.94210E+04  -9.30204E+03  1.19213E+03  1.94210E+04       kJ/mol
 Energy potential                       -7.76338E+04  2.03339E+03 -3.26300E+04  -7.76338E+04  2.03339E+03 -3.26300E+04       kJ/mol
 Energy kinetic                          2.03461E+04  8.59426E+03  1.44656E+05   2.03461E+04  8.59426E+03  1.44656E+05       kJ/mol
 Energy total                           -5.72877E+04  6.84421E+03  1.12026E+05  -5.72877E+04  6.84421E+03  1.12026E+05       kJ/mol
 Synchronization time                    1.01608E+01  1.39297E-02  9.42947E-02   1.01608E+01  1.39297E-02  9.42947E-02            s
 Efficiency load balancing               1.36902E-01  2.73960E-03 -7.62610E-03   1.36902E-01  2.73960E-03 -7.62610E-03             
 Time per step                           7.84540E-01  1.75489E-03  3.70280E-03   7.84540E-01  1.75489E-03  3.70280E-03            s
 Virial tensor element (1,1)             1.11126E+04  5.16668E+03 -1.16046E+04   1.11126E+04  5.16668E+03 -1.16046E+04       kJ/mol
 Virial tensor element (1,2)             9.60503E+01  6.60367E+03 -2.30363E+04   9.60503E+01  6.60367E+03 -2.30363E+04       kJ/mol
 Virial tensor element (1,3)             2.74302E+03  1.93354E+03  1.05943E+04   2.74302E+03  1.93354E+03  1.05943E+04       kJ/mol
 Virial tensor element (2,1)            -5.89453E+02  1.20964E+03 -6.84597E+03  -5.89453E+02  1.20964E+03 -6.84597E+03       kJ/mol
 Virial tensor element (2,2)             5.97235E+03  3.22800E+03 -3.39556E+04   5.97235E+03  3.22800E+03 -3.39556E+04       kJ/mol
 Virial tensor element (2,3)             1.51882E+03  1.09069E+03  9.20224E+03   1.51882E+03  1.09069E+03  9.20224E+03       kJ/mol
 Virial tensor element (3,1)            -1.34573E+03  3.73411E+03 -2.66210E+04  -1.34573E+03  3.73411E+03 -2.66210E+04       kJ/mol
 Virial tensor element (3,2)             1.36200E+03  2.59528E+03  1.70759E+04   1.36200E+03  2.59528E+03  1.70759E+04       kJ/mol
 Virial tensor element (3,3)             6.40175E+03  3.51371E+03  1.16425E+04   6.40175E+03  3.51371E+03  1.16425E+04       kJ/mol
 Kinetic energy element (1,1)            1.87173E+03  1.34212E+03  2.30570E+04   1.87173E+03  1.34212E+03  2.30570E+04       kJ/mol
 Kinetic energy element (1,2)            1.31036E+02  1.18611E+02  1.93847E+03   1.31036E+02  1.18611E+02  1.93847E+03       kJ/mol
 Kinetic energy element (1,3)            5.35405E+02  3.38021E+02  5.83528E+03   5.35405E+02  3.38021E+02  5.83528E+03       kJ/mol
 Kinetic energy element (2,1)            1.31036E+02  1.18611E+02  1.93847E+03   1.31036E+02  1.18611E+02  1.93847E+03       kJ/mol
 Kinetic energy element (2,2)            1.38317E+03  9.67956E+02  1.66455E+04   1.38317E+03  9.67956E+02  1.66455E+04       kJ/mol
 Kinetic energy element (2,3)           -4.66001E+01  5.91701E+01 -8.91480E+02  -4.66001E+01  5.91701E+01 -8.91480E+02       kJ/mol
 Kinetic energy element (3,1)            5.35405E+02  3.38021E+02  5.83528E+03   5.35405E+02  3.38021E+02  5.83528E+03       kJ/mol
 Kinetic energy element (3,2)           -4.66001E+01  5.91701E+01 -8.91480E+02  -4.66001E+01  5.91701E+01 -8.91480E+02       kJ/mol
 Kinetic energy element (3,3)            1.39593E+03  1.04905E+03  1.79328E+04   1.39593E+03  1.04905E+03  1.79328E+04       kJ/mol
 Energy solute   1 intra-electrostatic  -1.50974E+05  6.32629E+03 -1.08050E+05  -1.50974E+05  6.32629E+03 -1.08050E+05       kJ/mol
 Energy solute   1 intra-van der Waals  -1.74155E+04  1.04114E+03  1.64462E+04  -1.74155E+04  1.04114E+03  1.64462E+04       kJ/mol
 Energy solute   1 bonds                 5.94039E+03  1.44200E+03  1.92483E+04   5.94039E+03  1.44200E+03  1.92483E+04       kJ/mol
 Energy solute   1 angles                8.14714E+03  1.24731E+03  2.09345E+04   8.14714E+03  1.24731E+03  2.09345E+04       kJ/mol
 Energy solute   1 Urey-Bradley          0.00000E+00  0.00000E+00  0.00000E+00   0.00000E+00  0.00000E+00  0.00000E+00       kJ/mol
 Energy solute   1 proper dihedrals      2.23928E+04  8.66740E+02  1.48430E+04   2.23928E+04  8.66740E+02  1.48430E+04       kJ/mol
 Energy solute   1 improper dihedrals    0.00000E+00  0.00000E+00  0.00000E+00   0.00000E+00  0.00000E+00  0.00000E+00       kJ/mol
 Energy solute   1 van der Waals 3rd     8.11346E+03  1.84914E+02  2.97485E+03   8.11346E+03  1.84914E+02  2.97485E+03       kJ/mol
 Energy solute   1 electrostatic 3rd     4.61622E+04  3.57691E+02  9.72635E+02   4.61622E+04  3.57691E+02  9.72635E+02       kJ/mol
 Energy solute   1 van der Waals nb     -1.74155E+04  1.04114E+03  1.64462E+04  -1.74155E+04  1.04114E+03  1.64462E+04       kJ/mol
 Energy solute   1 electrostatic nb     -1.50974E+05  6.32629E+03 -1.08050E+05  -1.50974E+05  6.32629E+03 -1.08050E+05       kJ/mol
 Energy solute   1 kinetic               2.03461E+04  8.59426E+03  1.44656E+05   2.03461E+04  8.59426E+03  1.44656E+05       kJ/mol
 Energy solute   1 potential            -7.76338E+04  2.03339E+03 -3.26300E+04  -7.76338E+04  2.03339E+03 -3.26300E+04       kJ/mol
 ========ADIOS from NWChem: timestep -                   101
 ========ADIOS from NWChem: timestep -                   102
 ========ADIOS from NWChem: timestep -                   103
 ========ADIOS from NWChem: timestep -                   104
 ========ADIOS from NWChem: timestep -                   105
 ========ADIOS from NWChem: timestep -                   106
 ========ADIOS from NWChem: timestep -                   107
 ========ADIOS from NWChem: timestep -                   108
 ========ADIOS from NWChem: timestep -                   109
 ========ADIOS from NWChem: timestep -                   110

 MOLECULAR DYNAMICS TIME STEP INFORMATION                                                                    10/20/20   13:03:09 

    Time      Temp    Pres      Volume Tscalw Tscals  Pscal    U(ele)    U(vdW)      U(pot)     U(kin)     U(tot) 
     ps         K      Pa        nm**3                         kJ/mol    kJ/mol      kJ/mol     kJ/mol     kJ/mol 

    0.22000  270.89 0.00E+00  5746.480 1.0005 1.0005 1.0000-1.1581E+05-6.5489E+03-7.9557E+04 3.0264E+04-4.9293E+04
 ========ADIOS from NWChem: timestep -                   111
 ========ADIOS from NWChem: timestep -                   112
 ========ADIOS from NWChem: timestep -                   113
 ========ADIOS from NWChem: timestep -                   114
 ========ADIOS from NWChem: timestep -                   115
 ========ADIOS from NWChem: timestep -                   116
 ========ADIOS from NWChem: timestep -                   117
 ========ADIOS from NWChem: timestep -                   118
 ========ADIOS from NWChem: timestep -                   119
 ========ADIOS from NWChem: timestep -                   120
    0.24000  279.61 0.00E+00  5746.470 1.0012 1.0012 1.0000-1.1610E+05-6.3893E+03-8.0964E+04 3.1239E+04-4.9725E+04
 ========ADIOS from NWChem: timestep -                   121
 ========ADIOS from NWChem: timestep -                   122
 ========ADIOS from NWChem: timestep -                   123
 ========ADIOS from NWChem: timestep -                   124
 ========ADIOS from NWChem: timestep -                   125
 ========ADIOS from NWChem: timestep -                   126
 ========ADIOS from NWChem: timestep -                   127
 ========ADIOS from NWChem: timestep -                   128
 ========ADIOS from NWChem: timestep -                   129
 ========ADIOS from NWChem: timestep -                   130
    0.26000  276.85 0.00E+00  5746.459 1.0007 1.0007 1.0000-1.1674E+05-6.4837E+03-7.9520E+04 3.0930E+04-4.8590E+04
 ========ADIOS from NWChem: timestep -                   131
 ========ADIOS from NWChem: timestep -                   132
 ========ADIOS from NWChem: timestep -                   133
 ========ADIOS from NWChem: timestep -                   134
 ========ADIOS from NWChem: timestep -                   135
 ========ADIOS from NWChem: timestep -                   136
 ========ADIOS from NWChem: timestep -                   137
 ========ADIOS from NWChem: timestep -                   138
 ========ADIOS from NWChem: timestep -                   139
 ========ADIOS from NWChem: timestep -                   140
    0.28000  275.24 0.00E+00  5746.448 1.0006 1.0006 1.0000-1.1634E+05-5.9229E+03-7.7639E+04 3.0750E+04-4.6889E+04
 ========ADIOS from NWChem: timestep -                   141
 ========ADIOS from NWChem: timestep -                   142
 ========ADIOS from NWChem: timestep -                   143
 ========ADIOS from NWChem: timestep -                   144
 ========ADIOS from NWChem: timestep -                   145
 ========ADIOS from NWChem: timestep -                   146
 ========ADIOS from NWChem: timestep -                   147
 ========ADIOS from NWChem: timestep -                   148
 ========ADIOS from NWChem: timestep -                   149
 ========ADIOS from NWChem: timestep -                   150
    0.30000  278.20 0.00E+00  5746.438 1.0009 1.0009 1.0000-1.1689E+05-5.7288E+03-7.7621E+04 3.1081E+04-4.6540E+04
 ========ADIOS from NWChem: timestep -                   151
 ========ADIOS from NWChem: timestep -                   152
 ========ADIOS from NWChem: timestep -                   153
 ========ADIOS from NWChem: timestep -                   154
 ========ADIOS from NWChem: timestep -                   155
 ========ADIOS from NWChem: timestep -                   156
 ========ADIOS from NWChem: timestep -                   157
 ========ADIOS from NWChem: timestep -                   158
 ========ADIOS from NWChem: timestep -                   159
 ========ADIOS from NWChem: timestep -                   160
    0.32000  274.73 0.00E+00  5746.427 1.0007 1.0007 1.0000-1.1813E+05-5.7792E+03-7.7300E+04 3.0693E+04-4.6608E+04
 ========ADIOS from NWChem: timestep -                   161
 ========ADIOS from NWChem: timestep -                   162
 ========ADIOS from NWChem: timestep -                   163
 ========ADIOS from NWChem: timestep -                   164
 ========ADIOS from NWChem: timestep -                   165
 ========ADIOS from NWChem: timestep -                   166
 ========ADIOS from NWChem: timestep -                   167
 ========ADIOS from NWChem: timestep -                   168
 ========ADIOS from NWChem: timestep -                   169
 ========ADIOS from NWChem: timestep -                   170
    0.34000  272.52 0.00E+00  5746.416 1.0009 1.0009 1.0000-1.1803E+05-5.8509E+03-7.6550E+04 3.0446E+04-4.6104E+04
 ========ADIOS from NWChem: timestep -                   171
 ========ADIOS from NWChem: timestep -                   172
 ========ADIOS from NWChem: timestep -                   173
 ========ADIOS from NWChem: timestep -                   174
 ========ADIOS from NWChem: timestep -                   175
 ========ADIOS from NWChem: timestep -                   176
 ========ADIOS from NWChem: timestep -                   177
 ========ADIOS from NWChem: timestep -                   178
 ========ADIOS from NWChem: timestep -                   179
 ========ADIOS from NWChem: timestep -                   180
    0.36000  275.33 0.00E+00  5746.406 1.0008 1.0008 1.0000-1.1867E+05-5.9683E+03-7.6893E+04 3.0760E+04-4.6133E+04
 ========ADIOS from NWChem: timestep -                   181
 ========ADIOS from NWChem: timestep -                   182
 ========ADIOS from NWChem: timestep -                   183
 ========ADIOS from NWChem: timestep -                   184
 ========ADIOS from NWChem: timestep -                   185
 ========ADIOS from NWChem: timestep -                   186
 ========ADIOS from NWChem: timestep -                   187
 ========ADIOS from NWChem: timestep -                   188
 ========ADIOS from NWChem: timestep -                   189
 ========ADIOS from NWChem: timestep -                   190
    0.38000  273.71 0.00E+00  5746.395 1.0011 1.0011 1.0000-1.1809E+05-5.7380E+03-7.5850E+04 3.0580E+04-4.5270E+04
 ========ADIOS from NWChem: timestep -                   191
 ========ADIOS from NWChem: timestep -                   192
 ========ADIOS from NWChem: timestep -                   193
 ========ADIOS from NWChem: timestep -                   194
 ========ADIOS from NWChem: timestep -                   195
 ========ADIOS from NWChem: timestep -                   196
 ========ADIOS from NWChem: timestep -                   197
 ========ADIOS from NWChem: timestep -                   198
 ========ADIOS from NWChem: timestep -                   199
 ========ADIOS from NWChem: timestep -                   200
    0.40000  275.40 0.00E+00  5746.384 1.0010 1.0010 1.0000-1.1742E+05-5.8897E+03-7.5267E+04 3.0768E+04-4.4499E+04

 MOLECULAR DYNAMICS STATISTICAL INFORMATION                                                                  10/20/20   13:04:20 

                                           Statistics over last      100 steps     Statistics over last      200 steps
                                           Average     RMS fluct     Drift/ps      Average     RMS fluct     Drift/ps

 Step                                    1.50500E+02  2.88661E+01  5.00000E+02   1.00500E+02  5.77343E+01  5.00000E+02             
 Time                                    3.01000E-01  5.77321E-02  1.00000E+00   2.01000E-01  1.15469E-01  1.00000E+00           ps
 Number solute-solute interactions   SR  2.45597E+06  7.22288E+03  1.08705E+05   2.44532E+06  1.21916E+04  9.85166E+04             
 Number of solute SHAKE iterations       1.00000E+00  0.00000E+00  0.00000E+00   1.00000E+00  0.00000E+00  0.00000E+00             
 Volume                                  5.74644E+03  3.08081E-02 -5.33643E-01   5.74649E+03  6.16195E-02 -5.33648E-01        nm**3
 Mass density                            1.96667E+01  1.05440E-04  1.82635E-03   1.96665E+01  2.10884E-04  1.82633E-03      kg/m**3
 Pressure                                0.00000E+00  0.00000E+00  0.00000E+00   0.00000E+00  0.00000E+00  0.00000E+00           Pa
 Pressure scaling                        1.00000E+00  7.05252E-08  1.49229E-13   1.00000E+00  9.31054E-08 -4.26336E-14             
 Temperature                             2.75662E+02  4.66270E+00 -3.18469E+01   2.28889E+02  7.18153E+01  5.08665E+02            K
 Temperature solute                      2.75662E+02  4.66270E+00 -3.18469E+01   2.28889E+02  7.18153E+01  5.08665E+02            K
 Temperature scaling solute              1.00082E+00  1.81822E-04  1.23690E-03   1.02786E+00  2.23506E-01 -3.84190E-01             
 Energy electrostatic                   -1.17083E+05  9.85485E+02 -1.52155E+04  -1.10947E+05  7.59580E+03 -6.13007E+04       kJ/mol
 Energy van der Waals                   -6.09355E+03  4.07187E+02  5.44052E+03  -7.69779E+03  1.83496E+03  1.51396E+04       kJ/mol
 Energy potential                       -7.80488E+04  1.97189E+03  3.14341E+04  -7.78413E+04  2.01359E+03 -1.70556E+03       kJ/mol
 Energy kinetic                          3.07971E+04  5.20920E+02 -3.55796E+03   2.55716E+04  8.02325E+03  5.68285E+04       kJ/mol
 Energy total                           -4.72516E+04  1.66091E+03  2.78761E+04  -5.22697E+04  7.06979E+03  5.51229E+04       kJ/mol
 Synchronization time                    1.01858E+01  4.36055E-02 -7.01932E-02   1.01733E+01  3.46940E-02  9.66704E-02            s
 Efficiency load balancing               1.36467E-01  2.00208E-04  3.75071E-04   1.36685E-01  1.95450E-03 -2.53758E-03             
 Time per step                           7.86168E-01  3.12594E-03 -4.58113E-03   7.85354E-01  2.66237E-03  5.99552E-03            s
 Virial tensor element (1,1)            -1.37016E+04  1.29895E+04  1.48068E+05  -1.29450E+03  1.58634E+04 -7.59987E+04       kJ/mol
 Virial tensor element (1,2)             2.16665E+02  9.24935E+03  7.13173E+04   1.56358E+02  8.03636E+03  6.48699E+03       kJ/mol
 Virial tensor element (1,3)            -3.44204E+03  7.00614E+03  5.08005E+04  -3.49510E+02  5.99800E+03 -1.55208E+04       kJ/mol
 Virial tensor element (2,1)             1.54594E+03  4.83857E+03  1.01528E+03   4.78245E+02  3.68476E+03  7.27915E+03       kJ/mol
 Virial tensor element (2,2)            -3.92636E+03  1.30129E+04 -3.12704E+04   1.02299E+03  1.06946E+04 -4.52737E+04       kJ/mol
 Virial tensor element (2,3)            -3.09368E+03  9.52127E+03  7.13121E+04  -7.87430E+02  7.15827E+03 -7.23376E+03       kJ/mol
 Virial tensor element (3,1)             1.06930E+03  7.13863E+03  4.91480E+04  -1.38217E+02  5.82322E+03  1.18722E+04       kJ/mol
 Virial tensor element (3,2)             4.74025E+02  5.79218E+03  3.41845E+03   9.18014E+02  4.50994E+03 -7.68406E+02       kJ/mol
 Virial tensor element (3,3)            -5.49376E+03  1.51095E+04  1.61870E+05   4.53992E+02  1.24779E+04 -2.29218E+04       kJ/mol
 Kinetic energy element (1,1)            2.16029E+03  9.08604E+02 -1.54260E+04   2.01601E+03  1.15509E+03  2.03594E+03       kJ/mol
 Kinetic energy element (1,2)           -1.44600E+02  1.80125E+02 -2.49374E+03  -6.78197E+00  2.05550E+02 -1.10306E+03       kJ/mol
 Kinetic energy element (1,3)            4.96962E+02  2.58641E+02 -4.32574E+03   5.16184E+02  3.01573E+02  4.45137E+01       kJ/mol
 Kinetic energy element (2,1)           -1.44600E+02  1.80125E+02 -2.49374E+03  -6.78197E+00  2.05550E+02 -1.10306E+03       kJ/mol
 Kinetic energy element (2,2)            1.81826E+03  7.51186E+02 -1.27420E+04   1.60071E+03  8.93273E+02  2.11955E+03       kJ/mol
 Kinetic energy element (2,3)            1.55810E+02  1.40004E+02 -3.59454E+02   5.46048E+01  1.47626E+02  6.02701E+02       kJ/mol
 Kinetic energy element (3,1)            4.96962E+02  2.58641E+02 -4.32574E+03   5.16184E+02  3.01573E+02  4.45137E+01       kJ/mol
 Kinetic energy element (3,2)            1.55810E+02  1.40004E+02 -3.59454E+02   5.46048E+01  1.47626E+02  6.02701E+02       kJ/mol
 Kinetic energy element (3,3)            1.33500E+03  8.45605E+02 -1.27440E+04   1.36546E+03  9.53262E+02  4.20052E+02       kJ/mol
 Energy solute   1 intra-electrostatic  -1.63084E+05  9.32644E+02 -1.23913E+04  -1.57029E+05  7.55678E+03 -6.04651E+04       kJ/mol
 Energy solute   1 intra-van der Waals  -1.49342E+04  2.84043E+02  3.31494E+03  -1.61749E+04  1.45654E+03  1.17750E+04       kJ/mol
 Energy solute   1 bonds                 8.09500E+03  8.96762E+02  9.63000E+03   7.01769E+03  1.61318E+03  1.16895E+04       kJ/mol
 Energy solute   1 angles                1.25827E+04  1.29922E+03  2.20447E+04   1.03649E+04  2.55742E+03  2.20057E+04       kJ/mol
 Energy solute   1 Urey-Bradley          0.00000E+00  0.00000E+00  0.00000E+00   0.00000E+00  0.00000E+00  0.00000E+00       kJ/mol
 Energy solute   1 proper dihedrals      2.44497E+04  5.55718E+02  9.53434E+03   2.34213E+04  1.26004E+03  1.07603E+04       kJ/mol
 Energy solute   1 improper dihedrals    0.00000E+00  0.00000E+00  0.00000E+00   0.00000E+00  0.00000E+00  0.00000E+00       kJ/mol
 Energy solute   1 van der Waals 3rd     8.84066E+03  1.57150E+02  2.12557E+03   8.47706E+03  4.02057E+02  3.36458E+03       kJ/mol
 Energy solute   1 electrostatic 3rd     4.60011E+04  3.40652E+02 -2.82415E+03   4.60816E+04  3.58445E+02 -8.35622E+02       kJ/mol
 Energy solute   1 van der Waals nb     -1.49342E+04  2.84043E+02  3.31494E+03  -1.61749E+04  1.45654E+03  1.17750E+04       kJ/mol
 Energy solute   1 electrostatic nb     -1.63084E+05  9.32644E+02 -1.23913E+04  -1.57029E+05  7.55678E+03 -6.04651E+04       kJ/mol
 Energy solute   1 kinetic               3.07971E+04  5.20920E+02 -3.55796E+03   2.55716E+04  8.02325E+03  5.68285E+04       kJ/mol
 Energy solute   1 potential            -7.80488E+04  1.97189E+03  3.14341E+04  -7.78413E+04  2.01359E+03 -1.70556E+03       kJ/mol
 ========ADIOS from NWChem: timestep -                   201
 ========ADIOS from NWChem: timestep -                   202
 ========ADIOS from NWChem: timestep -                   203
 ========ADIOS from NWChem: timestep -                   204
 ========ADIOS from NWChem: timestep -                   205
 ========ADIOS from NWChem: timestep -                   206
 ========ADIOS from NWChem: timestep -                   207
 ========ADIOS from NWChem: timestep -                   208
 ========ADIOS from NWChem: timestep -                   209
 ========ADIOS from NWChem: timestep -                   210

 MOLECULAR DYNAMICS TIME STEP INFORMATION                                                                    10/20/20   13:04:28 

    Time      Temp    Pres      Volume Tscalw Tscals  Pscal    U(ele)    U(vdW)      U(pot)     U(kin)     U(tot) 
     ps         K      Pa        nm**3                         kJ/mol    kJ/mol      kJ/mol     kJ/mol     kJ/mol 

    0.42000  274.09 0.00E+00  5746.374 1.0006 1.0006 1.0000-1.1716E+05-5.9972E+03-7.4081E+04 3.0621E+04-4.3459E+04
 ========ADIOS from NWChem: timestep -                   211
 ========ADIOS from NWChem: timestep -                   212
 ========ADIOS from NWChem: timestep -                   213
 ========ADIOS from NWChem: timestep -                   214
 ========ADIOS from NWChem: timestep -                   215
 ========ADIOS from NWChem: timestep -                   216
 ========ADIOS from NWChem: timestep -                   217
 ========ADIOS from NWChem: timestep -                   218
 ========ADIOS from NWChem: timestep -                   219
 ========ADIOS from NWChem: timestep -                   220
    0.44000  280.13 0.00E+00  5746.363 1.0007 1.0007 1.0000-1.1617E+05-5.7643E+03-7.3193E+04 3.1297E+04-4.1896E+04
 ========ADIOS from NWChem: timestep -                   221
 ========ADIOS from NWChem: timestep -                   222
 ========ADIOS from NWChem: timestep -                   223
 ========ADIOS from NWChem: timestep -                   224
 ========ADIOS from NWChem: timestep -                   225
 ========ADIOS from NWChem: timestep -                   226
 ========ADIOS from NWChem: timestep -                   227
 ========ADIOS from NWChem: timestep -                   228
 ========ADIOS from NWChem: timestep -                   229
 ========ADIOS from NWChem: timestep -                   230
    0.46000  286.57 0.00E+00  5746.352 1.0007 1.0007 1.0000-1.1570E+05-5.8185E+03-7.2864E+04 3.2016E+04-4.0848E+04
 ========ADIOS from NWChem: timestep -                   231
 ========ADIOS from NWChem: timestep -                   232
 ========ADIOS from NWChem: timestep -                   233
 ========ADIOS from NWChem: timestep -                   234
 ========ADIOS from NWChem: timestep -                   235
 ========ADIOS from NWChem: timestep -                   236
 ========ADIOS from NWChem: timestep -                   237
 ========ADIOS from NWChem: timestep -                   238
 ========ADIOS from NWChem: timestep -                   239
 ========ADIOS from NWChem: timestep -                   240
    0.48000  286.08 0.00E+00  5746.342 1.0003 1.0003 1.0000-1.1674E+05-5.6884E+03-7.2746E+04 3.1961E+04-4.0785E+04
 ========ADIOS from NWChem: timestep -                   241
 ========ADIOS from NWChem: timestep -                   242
 ========ADIOS from NWChem: timestep -                   243
 ========ADIOS from NWChem: timestep -                   244
 ========ADIOS from NWChem: timestep -                   245
 ========ADIOS from NWChem: timestep -                   246
 ========ADIOS from NWChem: timestep -                   247
 ========ADIOS from NWChem: timestep -                   248
 ========ADIOS from NWChem: timestep -                   249
 ========ADIOS from NWChem: timestep -                   250
    0.50000  286.06 0.00E+00  5746.331 1.0002 1.0002 1.0000-1.1723E+05-5.5926E+03-7.2824E+04 3.1958E+04-4.0865E+04
 ========ADIOS from NWChem: timestep -                   251
 ========ADIOS from NWChem: timestep -                   252
 ========ADIOS from NWChem: timestep -                   253
 ========ADIOS from NWChem: timestep -                   254
 ========ADIOS from NWChem: timestep -                   255
 ========ADIOS from NWChem: timestep -                   256
 ========ADIOS from NWChem: timestep -                   257
 ========ADIOS from NWChem: timestep -                   258
 ========ADIOS from NWChem: timestep -                   259
 ========ADIOS from NWChem: timestep -                   260
    0.52000  293.55 0.00E+00  5746.320 1.0002 1.0002 1.0000-1.1791E+05-5.3575E+03-7.4018E+04 3.2796E+04-4.1222E+04
 ========ADIOS from NWChem: timestep -                   261
 ========ADIOS from NWChem: timestep -                   262
 ========ADIOS from NWChem: timestep -                   263
 ========ADIOS from NWChem: timestep -                   264
 ========ADIOS from NWChem: timestep -                   265
 ========ADIOS from NWChem: timestep -                   266
 ========ADIOS from NWChem: timestep -                   267
 ========ADIOS from NWChem: timestep -                   268
 ========ADIOS from NWChem: timestep -                   269
 ========ADIOS from NWChem: timestep -                   270
    0.54000  293.11 0.00E+00  5746.309 1.0002 1.0002 1.0000-1.1864E+05-5.1256E+03-7.3989E+04 3.2747E+04-4.1242E+04
 ========ADIOS from NWChem: timestep -                   271
 ========ADIOS from NWChem: timestep -                   272
 ========ADIOS from NWChem: timestep -                   273
 ========ADIOS from NWChem: timestep -                   274
 ========ADIOS from NWChem: timestep -                   275
 ========ADIOS from NWChem: timestep -                   276
 ========ADIOS from NWChem: timestep -                   277
 ========ADIOS from NWChem: timestep -                   278
 ========ADIOS from NWChem: timestep -                   279
 ========ADIOS from NWChem: timestep -                   280
    0.56000  289.38 0.00E+00  5746.299 1.0002 1.0002 1.0000-1.2007E+05-5.0316E+03-7.4410E+04 3.2329E+04-4.2081E+04
 ========ADIOS from NWChem: timestep -                   281
 ========ADIOS from NWChem: timestep -                   282
 ========ADIOS from NWChem: timestep -                   283
 ========ADIOS from NWChem: timestep -                   284
 ========ADIOS from NWChem: timestep -                   285
 ========ADIOS from NWChem: timestep -                   286
 ========ADIOS from NWChem: timestep -                   287
 ========ADIOS from NWChem: timestep -                   288
 ========ADIOS from NWChem: timestep -                   289
 ========ADIOS from NWChem: timestep -                   290
    0.58000  291.94 0.00E+00  5746.288 1.0002 1.0002 1.0000-1.2019E+05-4.9711E+03-7.4242E+04 3.2615E+04-4.1627E+04
 ========ADIOS from NWChem: timestep -                   291
 ========ADIOS from NWChem: timestep -                   292
 ========ADIOS from NWChem: timestep -                   293
 ========ADIOS from NWChem: timestep -                   294
 ========ADIOS from NWChem: timestep -                   295
 ========ADIOS from NWChem: timestep -                   296
 ========ADIOS from NWChem: timestep -                   297
 ========ADIOS from NWChem: timestep -                   298
 ========ADIOS from NWChem: timestep -                   299
 ========ADIOS from NWChem: timestep -                   300
    0.60000  299.33 0.00E+00  5746.277 1.0001 1.0001 1.0000-1.1916E+05-5.5506E+03-7.5086E+04 3.3442E+04-4.1644E+04

 MOLECULAR DYNAMICS STATISTICAL INFORMATION                                                                  10/20/20   13:05:38 

                                           Statistics over last      100 steps     Statistics over last      300 steps
                                           Average     RMS fluct     Drift/ps      Average     RMS fluct     Drift/ps

 Step                                    2.50500E+02  2.88661E+01  5.00000E+02   1.50500E+02  8.66021E+01  5.00000E+02             
 Time                                    5.01000E-01  5.77321E-02  1.00000E+00   3.01000E-01  1.73204E-01  1.00000E+00           ps
 Number solute-solute interactions   SR  2.46246E+06  6.64371E+03 -5.41528E+04   2.45103E+06  1.33825E+04  6.52746E+04             
 Number of solute SHAKE iterations       1.00000E+00  0.00000E+00  0.00000E+00   1.00000E+00  0.00000E+00  0.00000E+00             
 Volume                                  5.74633E+03  3.08072E-02 -5.33633E-01   5.74644E+03  9.24292E-02 -5.33643E-01        nm**3
 Mass density                            1.96671E+01  1.05440E-04  1.82638E-03   1.96667E+01  3.16331E-04  1.82635E-03      kg/m**3
 Pressure                                0.00000E+00  0.00000E+00  0.00000E+00   0.00000E+00  0.00000E+00  0.00000E+00           Pa
 Pressure scaling                        1.00000E+00  7.05252E-08  2.55821E-13   1.00000E+00  9.53674E-08 -1.89480E-14             
 Temperature                             2.87563E+02  6.64560E+00  1.06737E+02   2.48447E+02  6.49465E+01  2.85056E+02            K
 Temperature solute                      2.87563E+02  6.64560E+00  1.06737E+02   2.48447E+02  6.49465E+01  2.85056E+02            K
 Temperature scaling solute              1.00038E+00  2.43399E-04 -3.89515E-03   1.01870E+00  1.82951E-01 -1.75033E-01             
 Energy electrostatic                   -1.17908E+05  1.54363E+03 -2.04385E+04  -1.13267E+05  7.07278E+03 -3.43875E+04       kJ/mol
 Energy van der Waals                   -5.52396E+03  3.55823E+02  5.53652E+03  -6.97318E+03  1.82676E+03  9.52157E+03       kJ/mol
 Energy potential                       -7.38823E+04  8.98070E+02 -4.62778E+03  -7.65216E+04  2.54064E+03  8.12109E+03       kJ/mol
 Energy kinetic                          3.21268E+04  7.42451E+02  1.19247E+04   2.77566E+04  7.25587E+03  3.18466E+04       kJ/mol
 Energy total                           -4.17556E+04  1.04422E+03  7.29696E+03  -4.87650E+04  7.63222E+03  3.99677E+04       kJ/mol
 Synchronization time                    1.01781E+01  3.96803E-02  1.86815E-02   1.01749E+01  3.65036E-02  4.01034E-02            s
 Efficiency load balancing               1.36713E-01  4.77646E-04  1.39682E-03   1.36694E-01  1.61955E-03 -6.37494E-04             
 Time per step                           7.85809E-01  3.10569E-03  3.02652E-03   7.85506E-01  2.82602E-03  2.89764E-03            s
 Virial tensor element (1,1)             3.87357E+00  6.40345E+03 -9.74154E+03  -8.61709E+02  1.34836E+04 -1.99933E+04       kJ/mol
 Virial tensor element (1,2)            -1.75743E+02  5.06857E+03 -2.56747E+04   4.56575E+01  7.18633E+03  2.33205E+02       kJ/mol
 Virial tensor element (1,3)            -1.33589E+03  3.77628E+03 -5.32500E+03  -6.78302E+02  5.38086E+03 -6.98786E+03       kJ/mol
 Virial tensor element (2,1)            -3.95750E+03  3.45810E+03 -3.41574E+04  -1.00034E+03  4.17256E+03 -8.96554E+03       kJ/mol
 Virial tensor element (2,2)             6.69105E+03  7.65782E+03 -7.03984E+04   2.91234E+03  1.01457E+04 -3.42555E+03       kJ/mol
 Virial tensor element (2,3)            -1.62806E+03  6.73757E+03 -3.63782E+04  -1.06764E+03  7.03201E+03 -5.35863E+03       kJ/mol
 Virial tensor element (3,1)             2.82015E+03  6.70249E+03 -5.56574E+04   8.47906E+02  6.28697E+03  8.03067E+03       kJ/mol
 Virial tensor element (3,2)            -5.06367E+03  9.39366E+03  6.44574E+04  -1.07588E+03  7.13615E+03 -1.11334E+04       kJ/mol
 Virial tensor element (3,3)             1.83707E+02  5.43898E+03 -5.31695E+04   3.63897E+02  1.06619E+04 -9.36126E+03       kJ/mol
 Kinetic energy element (1,1)            7.36754E+02  5.95567E+01 -2.39404E+02   1.58959E+03  1.11997E+03 -2.24846E+03       kJ/mol
 Kinetic energy element (1,2)            8.08247E+00  7.19287E+01  3.75541E+02  -1.82716E+00  1.73034E+02 -2.79889E+02       kJ/mol
 Kinetic energy element (1,3)            7.54500E+01  8.07024E+01 -1.03790E+02   3.69273E+02  3.25526E+02 -9.70074E+02       kJ/mol
 Kinetic energy element (2,1)            8.08247E+00  7.19287E+01  3.75541E+02  -1.82716E+00  1.73034E+02 -2.79889E+02       kJ/mol
 Kinetic energy element (2,2)            8.39791E+02  9.95715E+01  1.29036E+03   1.34707E+03  8.14819E+02 -1.01517E+03       kJ/mol
 Kinetic energy element (2,3)           -7.73189E+01  4.86196E+01 -5.18786E+02   1.06302E+01  1.38508E+02 -1.33804E+02       kJ/mol
 Kinetic energy element (3,1)            7.54500E+01  8.07024E+01 -1.03790E+02   3.69273E+02  3.25526E+02 -9.70074E+02       kJ/mol
 Kinetic energy element (3,2)           -7.73189E+01  4.86196E+01 -5.18786E+02   1.06302E+01  1.38508E+02 -1.33804E+02       kJ/mol
 Kinetic energy element (3,3)            6.81908E+02  9.38614E+01  6.83324E+02   1.13761E+03  8.44142E+02 -1.36927E+03       kJ/mol
 Energy solute   1 intra-electrostatic  -1.63323E+05  1.51114E+03 -1.82445E+04  -1.59127E+05  6.90168E+03 -3.25769E+04       kJ/mol
 Energy solute   1 intra-van der Waals  -1.45647E+04  3.16551E+02  4.77545E+03  -1.56381E+04  1.42263E+03  7.24384E+03       kJ/mol
 Energy solute   1 bonds                 9.16062E+03  3.72254E+02  2.10082E+03   7.73200E+03  1.67379E+03  8.30342E+03       kJ/mol
 Energy solute   1 angles                1.48139E+04  4.57384E+02  7.25907E+03   1.18479E+04  2.97129E+03  1.66757E+04       kJ/mol
 Energy solute   1 Urey-Bradley          0.00000E+00  0.00000E+00  0.00000E+00   0.00000E+00  0.00000E+00  0.00000E+00       kJ/mol
 Energy solute   1 proper dihedrals      2.55749E+04  1.17100E+02  9.14322E+02   2.41391E+04  1.44696E+03  8.00788E+03       kJ/mol
 Energy solute   1 improper dihedrals    0.00000E+00  0.00000E+00  0.00000E+00   0.00000E+00  0.00000E+00  0.00000E+00       kJ/mol
 Energy solute   1 van der Waals 3rd     9.04075E+03  6.99011E+01  7.61069E+02   8.66496E+03  4.24268E+02  2.27772E+03       kJ/mol
 Energy solute   1 electrostatic 3rd     4.54149E+04  4.04314E+02 -2.19399E+03   4.58594E+04  4.88810E+02 -1.81052E+03       kJ/mol
 Energy solute   1 van der Waals nb     -1.45647E+04  3.16551E+02  4.77545E+03  -1.56381E+04  1.42263E+03  7.24384E+03       kJ/mol
 Energy solute   1 electrostatic nb     -1.63323E+05  1.51114E+03 -1.82445E+04  -1.59127E+05  6.90168E+03 -3.25769E+04       kJ/mol
 Energy solute   1 kinetic               3.21268E+04  7.42451E+02  1.19247E+04   2.77566E+04  7.25587E+03  3.18466E+04       kJ/mol
 Energy solute   1 potential            -7.38823E+04  8.98070E+02 -4.62778E+03  -7.65216E+04  2.54064E+03  8.12109E+03       kJ/mol
 ========ADIOS from NWChem: timestep -                   301
 ========ADIOS from NWChem: timestep -                   302
 ========ADIOS from NWChem: timestep -                   303
 ========ADIOS from NWChem: timestep -                   304
 ========ADIOS from NWChem: timestep -                   305
 ========ADIOS from NWChem: timestep -                   306
 ========ADIOS from NWChem: timestep -                   307
 ========ADIOS from NWChem: timestep -                   308
 ========ADIOS from NWChem: timestep -                   309
 ========ADIOS from NWChem: timestep -                   310

 MOLECULAR DYNAMICS TIME STEP INFORMATION                                                                    10/20/20   13:05:46 

    Time      Temp    Pres      Volume Tscalw Tscals  Pscal    U(ele)    U(vdW)      U(pot)     U(kin)     U(tot) 
     ps         K      Pa        nm**3                         kJ/mol    kJ/mol      kJ/mol     kJ/mol     kJ/mol 

    0.62000  295.63 0.00E+00  5746.267 1.0001 1.0001 1.0000-1.1894E+05-5.4571E+03-7.4297E+04 3.3029E+04-4.1268E+04
 ========ADIOS from NWChem: timestep -                   311
 ========ADIOS from NWChem: timestep -                   312
 ========ADIOS from NWChem: timestep -                   313
 ========ADIOS from NWChem: timestep -                   314
 ========ADIOS from NWChem: timestep -                   315
 ========ADIOS from NWChem: timestep -                   316
 ========ADIOS from NWChem: timestep -                   317
 ========ADIOS from NWChem: timestep -                   318
 ========ADIOS from NWChem: timestep -                   319
 ========ADIOS from NWChem: timestep -                   320
    0.64000  293.91 0.00E+00  5746.256 1.0000 1.0000 1.0000-1.1934E+05-5.2813E+03-7.3504E+04 3.2835E+04-4.0669E+04
 ========ADIOS from NWChem: timestep -                   321
 ========ADIOS from NWChem: timestep -                   322
 ========ADIOS from NWChem: timestep -                   323
 ========ADIOS from NWChem: timestep -                   324
 ========ADIOS from NWChem: timestep -                   325
 ========ADIOS from NWChem: timestep -                   326
 ========ADIOS from NWChem: timestep -                   327
 ========ADIOS from NWChem: timestep -                   328
 ========ADIOS from NWChem: timestep -                   329
 ========ADIOS from NWChem: timestep -                   330
    0.66000  295.64 0.00E+00  5746.245 1.0001 1.0001 1.0000-1.1892E+05-5.1349E+03-7.3073E+04 3.3029E+04-4.0044E+04
 ========ADIOS from NWChem: timestep -                   331
 ========ADIOS from NWChem: timestep -                   332
 ========ADIOS from NWChem: timestep -                   333
 ========ADIOS from NWChem: timestep -                   334
 ========ADIOS from NWChem: timestep -                   335
 ========ADIOS from NWChem: timestep -                   336
 ========ADIOS from NWChem: timestep -                   337
 ========ADIOS from NWChem: timestep -                   338
 ========ADIOS from NWChem: timestep -                   339
 ========ADIOS from NWChem: timestep -                   340
    0.68000  296.17 0.00E+00  5746.235 1.0002 1.0002 1.0000-1.1962E+05-5.1009E+03-7.3531E+04 3.3088E+04-4.0443E+04
 ========ADIOS from NWChem: timestep -                   341
 ========ADIOS from NWChem: timestep -                   342
 ========ADIOS from NWChem: timestep -                   343
 ========ADIOS from NWChem: timestep -                   344
 ========ADIOS from NWChem: timestep -                   345
 ========ADIOS from NWChem: timestep -                   346
 ========ADIOS from NWChem: timestep -                   347
 ========ADIOS from NWChem: timestep -                   348
 ========ADIOS from NWChem: timestep -                   349
 ========ADIOS from NWChem: timestep -                   350
    0.70000  296.96 0.00E+00  5746.224 1.0000 1.0000 1.0000-1.2001E+05-5.1426E+03-7.3805E+04 3.3177E+04-4.0628E+04
 ========ADIOS from NWChem: timestep -                   351
 ========ADIOS from NWChem: timestep -                   352
 ========ADIOS from NWChem: timestep -                   353
 ========ADIOS from NWChem: timestep -                   354
 ========ADIOS from NWChem: timestep -                   355
 ========ADIOS from NWChem: timestep -                   356
 ========ADIOS from NWChem: timestep -                   357
 ========ADIOS from NWChem: timestep -                   358
 ========ADIOS from NWChem: timestep -                   359
 ========ADIOS from NWChem: timestep -                   360
    0.72000  297.24 0.00E+00  5746.213 1.0001 1.0001 1.0000-1.2060E+05-4.7411E+03-7.4182E+04 3.3208E+04-4.0975E+04
 ========ADIOS from NWChem: timestep -                   361
 ========ADIOS from NWChem: timestep -                   362
 ========ADIOS from NWChem: timestep -                   363
 ========ADIOS from NWChem: timestep -                   364
 ========ADIOS from NWChem: timestep -                   365
 ========ADIOS from NWChem: timestep -                   366
 ========ADIOS from NWChem: timestep -                   367
 ========ADIOS from NWChem: timestep -                   368
 ========ADIOS from NWChem: timestep -                   369
 ========ADIOS from NWChem: timestep -                   370
    0.74000  298.55 0.00E+00  5746.203 1.0000 1.0000 1.0000-1.2049E+05-4.7233E+03-7.3757E+04 3.3355E+04-4.0402E+04
 ========ADIOS from NWChem: timestep -                   371
 ========ADIOS from NWChem: timestep -                   372
 ========ADIOS from NWChem: timestep -                   373
 ========ADIOS from NWChem: timestep -                   374
 ========ADIOS from NWChem: timestep -                   375
 ========ADIOS from NWChem: timestep -                   376
 ========ADIOS from NWChem: timestep -                   377
 ========ADIOS from NWChem: timestep -                   378
 ========ADIOS from NWChem: timestep -                   379
 ========ADIOS from NWChem: timestep -                   380
    0.76000  295.24 0.00E+00  5746.192 1.0001 1.0001 1.0000-1.2020E+05-4.7474E+03-7.2913E+04 3.2984E+04-3.9929E+04
 ========ADIOS from NWChem: timestep -                   381
 ========ADIOS from NWChem: timestep -                   382
 ========ADIOS from NWChem: timestep -                   383
 ========ADIOS from NWChem: timestep -                   384
 ========ADIOS from NWChem: timestep -                   385
 ========ADIOS from NWChem: timestep -                   386
 ========ADIOS from NWChem: timestep -                   387
 ========ADIOS from NWChem: timestep -                   388
 ========ADIOS from NWChem: timestep -                   389
 ========ADIOS from NWChem: timestep -                   390
    0.78000  296.55 0.00E+00  5746.181 1.0000 1.0000 1.0000-1.1983E+05-4.7658E+03-7.2843E+04 3.3131E+04-3.9711E+04
 ========ADIOS from NWChem: timestep -                   391
 ========ADIOS from NWChem: timestep -                   392
 ========ADIOS from NWChem: timestep -                   393
 ========ADIOS from NWChem: timestep -                   394
 ========ADIOS from NWChem: timestep -                   395
 ========ADIOS from NWChem: timestep -                   396
 ========ADIOS from NWChem: timestep -                   397
 ========ADIOS from NWChem: timestep -                   398
 ========ADIOS from NWChem: timestep -                   399
 ========ADIOS from NWChem: timestep -                   400
    0.80000  298.37 0.00E+00  5746.171 0.9999 0.9999 1.0000-1.1973E+05-5.0602E+03-7.3000E+04 3.3334E+04-3.9665E+04

 MOLECULAR DYNAMICS STATISTICAL INFORMATION                                                                  10/20/20   13:06:57 

                                           Statistics over last      100 steps     Statistics over last      400 steps
                                           Average     RMS fluct     Drift/ps      Average     RMS fluct     Drift/ps

 Step                                    3.50500E+02  2.88661E+01  5.00000E+02   2.00500E+02  1.15470E+02  5.00000E+02             
 Time                                    7.01000E-01  5.77321E-02  1.00000E+00   4.01000E-01  2.30939E-01  1.00000E+00           ps
 Number solute-solute interactions   SR  2.42194E+06  1.20189E+04 -2.02222E+05   2.44376E+06  1.81407E+04 -1.65281E+04             
 Number of solute SHAKE iterations       1.00000E+00  0.00000E+00  0.00000E+00   1.00000E+00  0.00000E+00  0.00000E+00             
 Volume                                  5.74622E+03  3.08073E-02 -5.33623E-01   5.74638E+03  1.23238E-01 -5.33638E-01        nm**3
 Mass density                            1.96674E+01  1.05442E-04  1.82642E-03   1.96669E+01  4.21780E-04  1.82637E-03      kg/m**3
 Pressure                                0.00000E+00  0.00000E+00  0.00000E+00   0.00000E+00  0.00000E+00  0.00000E+00           Pa
 Pressure scaling                        1.00000E+00  7.05252E-08  3.41095E-13   1.00000E+00  3.57628E-08  2.39810E-14             
 Temperature                             2.96431E+02  2.25887E+00  2.43369E+01   2.60443E+02  5.99711E+01  1.88116E+02            K
 Temperature solute                      2.96431E+02  2.25887E+00  2.43369E+01   2.60443E+02  5.99711E+01  1.88116E+02            K
 Temperature scaling solute              1.00006E+00  7.68755E-05 -7.74032E-04   1.01404E+00  1.58646E-01 -1.00068E-01             
 Energy electrostatic                   -1.19652E+05  5.67675E+02 -5.85184E+03  -1.14864E+05  6.72620E+03 -2.35770E+04       kJ/mol
 Energy van der Waals                   -5.04185E+03  2.84841E+02  3.98953E+03  -6.49035E+03  1.79512E+03  6.79517E+03       kJ/mol
 Energy potential                       -7.34895E+04  5.47242E+02  4.18299E+03  -7.57636E+04  2.57680E+03  7.75540E+03       kJ/mol
 Energy kinetic                          3.31175E+04  2.52362E+02  2.71893E+03   2.90969E+04  6.70001E+03  2.10164E+04       kJ/mol
 Energy total                           -4.03720E+04  5.56881E+02  6.90192E+03  -4.66667E+04  7.54808E+03  2.87718E+04       kJ/mol
 Synchronization time                    1.01351E+01  4.20489E-02 -2.63415E-01   1.01649E+01  4.16893E-02 -4.31262E-02            s
 Efficiency load balancing               1.36855E-01  3.35879E-04  9.14905E-04   1.36734E-01  1.41431E-03 -2.81477E-05             
 Time per step                           7.82610E-01  3.00467E-03 -1.90187E-02   7.84782E-01  3.13348E-03 -3.14637E-03            s
 Virial tensor element (1,1)             3.39065E+03  2.91327E+03 -2.44751E+04   2.01380E+02  1.19108E+04 -2.83710E+03       kJ/mol
 Virial tensor element (1,2)            -5.34117E+02  5.86629E+03  8.51886E+04  -9.92861E+01  6.88469E+03  6.14016E+02       kJ/mol
 Virial tensor element (1,3)            -7.17537E+00  4.86960E+03  2.81851E+04  -5.10521E+02  5.26573E+03 -1.56386E+03       kJ/mol
 Virial tensor element (2,1)             1.24815E+03  1.48162E+03  3.62728E+03  -4.38216E+02  3.81502E+03 -5.63700E+02       kJ/mol
 Virial tensor element (2,2)             3.49567E+03  4.30649E+03 -8.89765E+03   3.05818E+03  9.05000E+03 -7.63852E+02       kJ/mol
 Virial tensor element (2,3)             3.13933E+02  2.52359E+03 -3.42424E+03  -7.22248E+02  6.24796E+03 -3.71307E+02       kJ/mol
 Virial tensor element (3,1)             2.19273E+03  6.35102E+03  9.88059E+04   1.18411E+03  6.32988E+03  6.82279E+03       kJ/mol
 Virial tensor element (3,2)            -9.09519E+02  2.12406E+03  1.84778E+03  -1.03429E+03  6.27109E+03 -4.43405E+03       kJ/mol
 Virial tensor element (3,3)            -4.96872E+02  5.14377E+03  1.80582E+04   1.48704E+02  9.59220E+03 -4.87759E+03       kJ/mol
 Kinetic energy element (1,1)            5.48062E+02  5.87149E+01 -8.35123E+02   1.32921E+03  1.07005E+03 -2.42628E+03       kJ/mol
 Kinetic energy element (1,2)           -3.46109E+01  4.48572E+01 -4.09440E+02  -1.00231E+01  1.52185E+02 -1.70577E+02       kJ/mol
 Kinetic energy element (1,3)            9.29318E+01  5.37409E+01 -2.72147E+02   3.00187E+02  3.07434E+02 -8.02106E+02       kJ/mol
 Kinetic energy element (2,1)           -3.46109E+01  4.48572E+01 -4.09440E+02  -1.00231E+01  1.52185E+02 -1.70577E+02       kJ/mol
 Kinetic energy element (2,2)            7.90003E+02  5.86497E+01 -6.94621E+02   1.20781E+03  7.46320E+02 -1.22251E+03       kJ/mol
 Kinetic energy element (2,3)            6.60356E+01  4.03198E+01 -4.32999E+01   2.44816E+01  1.23977E+02  2.07895E+01       kJ/mol
 Kinetic energy element (3,1)            9.29318E+01  5.37409E+01 -2.72147E+02   3.00187E+02  3.07434E+02 -8.02106E+02       kJ/mol
 Kinetic energy element (3,2)            6.60356E+01  4.03198E+01 -4.32999E+01   2.44816E+01  1.23977E+02  2.07895E+01       kJ/mol
 Kinetic energy element (3,3)            5.14319E+02  8.16687E+01 -8.82841E+02   9.81789E+02  7.80347E+02 -1.46796E+03       kJ/mol
 Energy solute   1 intra-electrostatic  -1.64636E+05  5.64268E+02 -4.41658E+03  -1.60504E+05  6.44165E+03 -2.15593E+04       kJ/mol
 Energy solute   1 intra-van der Waals  -1.41730E+04  2.22032E+02  2.64874E+03  -1.52719E+04  1.39023E+03  5.15774E+03       kJ/mol
 Energy solute   1 bonds                 9.61722E+03  2.69106E+02  1.31116E+03   8.20331E+03  1.66903E+03  6.17458E+03       kJ/mol
 Energy solute   1 angles                1.60886E+04  4.44507E+02  6.45124E+03   1.29081E+04  3.16902E+03  1.30993E+04       kJ/mol
 Energy solute   1 Urey-Bradley          0.00000E+00  0.00000E+00  0.00000E+00   0.00000E+00  0.00000E+00  0.00000E+00       kJ/mol
 Energy solute   1 proper dihedrals      2.54987E+04  1.32303E+02 -1.71709E+03   2.44790E+04  1.38607E+03  5.26333E+03       kJ/mol
 Energy solute   1 improper dihedrals    0.00000E+00  0.00000E+00  0.00000E+00   0.00000E+00  0.00000E+00  0.00000E+00       kJ/mol
 Energy solute   1 van der Waals 3rd     9.13114E+03  1.01502E+02  1.34079E+03   8.78150E+03  4.22287E+02  1.63743E+03       kJ/mol
 Energy solute   1 electrostatic 3rd     4.49837E+04  2.91677E+02 -1.43526E+03   4.56405E+04  5.86721E+02 -2.01764E+03       kJ/mol
 Energy solute   1 van der Waals nb     -1.41730E+04  2.22032E+02  2.64874E+03  -1.52719E+04  1.39023E+03  5.15774E+03       kJ/mol
 Energy solute   1 electrostatic nb     -1.64636E+05  5.64268E+02 -4.41658E+03  -1.60504E+05  6.44165E+03 -2.15593E+04       kJ/mol
 Energy solute   1 kinetic               3.31175E+04  2.52362E+02  2.71893E+03   2.90969E+04  6.70001E+03  2.10164E+04       kJ/mol
 Energy solute   1 potential            -7.34895E+04  5.47242E+02  4.18299E+03  -7.57636E+04  2.57680E+03  7.75540E+03       kJ/mol
 ========ADIOS from NWChem: timestep -                   401
 ========ADIOS from NWChem: timestep -                   402
 ========ADIOS from NWChem: timestep -                   403
 ========ADIOS from NWChem: timestep -                   404
 ========ADIOS from NWChem: timestep -                   405
 ========ADIOS from NWChem: timestep -                   406
 ========ADIOS from NWChem: timestep -                   407
 ========ADIOS from NWChem: timestep -                   408
 ========ADIOS from NWChem: timestep -                   409
 ========ADIOS from NWChem: timestep -                   410

 MOLECULAR DYNAMICS TIME STEP INFORMATION                                                                    10/20/20   13:07:05 

    Time      Temp    Pres      Volume Tscalw Tscals  Pscal    U(ele)    U(vdW)      U(pot)     U(kin)     U(tot) 
     ps         K      Pa        nm**3                         kJ/mol    kJ/mol      kJ/mol     kJ/mol     kJ/mol 

    0.82000  304.07 0.00E+00  5746.160 0.9999 0.9999 1.0000-1.1930E+05-5.2773E+03-7.3630E+04 3.3970E+04-3.9660E+04
 ========ADIOS from NWChem: timestep -                   411
 ========ADIOS from NWChem: timestep -                   412
 ========ADIOS from NWChem: timestep -                   413
 ========ADIOS from NWChem: timestep -                   414
 ========ADIOS from NWChem: timestep -                   415
 ========ADIOS from NWChem: timestep -                   416
 ========ADIOS from NWChem: timestep -                   417
 ========ADIOS from NWChem: timestep -                   418
 ========ADIOS from NWChem: timestep -                   419
 ========ADIOS from NWChem: timestep -                   420
    0.84000  299.63 0.00E+00  5746.149 0.9999 0.9999 1.0000-1.1971E+05-4.9886E+03-7.3063E+04 3.3475E+04-3.9588E+04
 ========ADIOS from NWChem: timestep -                   421
 ========ADIOS from NWChem: timestep -                   422
 ========ADIOS from NWChem: timestep -                   423
 ========ADIOS from NWChem: timestep -                   424
 ========ADIOS from NWChem: timestep -                   425
 ========ADIOS from NWChem: timestep -                   426
 ========ADIOS from NWChem: timestep -                   427
 ========ADIOS from NWChem: timestep -                   428
 ========ADIOS from NWChem: timestep -                   429
 ========ADIOS from NWChem: timestep -                   430
    0.86000  297.43 0.00E+00  5746.139 1.0000 1.0000 1.0000-1.1939E+05-4.6697E+03-7.1972E+04 3.3229E+04-3.8744E+04
 ========ADIOS from NWChem: timestep -                   431
 ========ADIOS from NWChem: timestep -                   432
 ========ADIOS from NWChem: timestep -                   433
 ========ADIOS from NWChem: timestep -                   434
 ========ADIOS from NWChem: timestep -                   435
 ========ADIOS from NWChem: timestep -                   436
 ========ADIOS from NWChem: timestep -                   437
 ========ADIOS from NWChem: timestep -                   438
 ========ADIOS from NWChem: timestep -                   439
 ========ADIOS from NWChem: timestep -                   440
    0.88000  300.50 0.00E+00  5746.128 1.0001 1.0001 1.0000-1.1939E+05-4.7635E+03-7.2283E+04 3.3572E+04-3.8711E+04
 ========ADIOS from NWChem: timestep -                   441
 ========ADIOS from NWChem: timestep -                   442
 ========ADIOS from NWChem: timestep -                   443
 ========ADIOS from NWChem: timestep -                   444
 ========ADIOS from NWChem: timestep -                   445
 ========ADIOS from NWChem: timestep -                   446
 ========ADIOS from NWChem: timestep -                   447
 ========ADIOS from NWChem: timestep -                   448
 ========ADIOS from NWChem: timestep -                   449
 ========ADIOS from NWChem: timestep -                   450
    0.90000  299.45 0.00E+00  5746.117 0.9999 0.9999 1.0000-1.1975E+05-4.6554E+03-7.2025E+04 3.3455E+04-3.8570E+04
 ========ADIOS from NWChem: timestep -                   451
 ========ADIOS from NWChem: timestep -                   452
 ========ADIOS from NWChem: timestep -                   453
 ========ADIOS from NWChem: timestep -                   454
 ========ADIOS from NWChem: timestep -                   455
 ========ADIOS from NWChem: timestep -                   456
 ========ADIOS from NWChem: timestep -                   457
 ========ADIOS from NWChem: timestep -                   458
 ========ADIOS from NWChem: timestep -                   459
 ========ADIOS from NWChem: timestep -                   460
    0.92000  296.37 0.00E+00  5746.107 1.0000 1.0000 1.0000-1.2041E+05-4.4504E+03-7.2134E+04 3.3111E+04-3.9024E+04
 ========ADIOS from NWChem: timestep -                   461
 ========ADIOS from NWChem: timestep -                   462
 ========ADIOS from NWChem: timestep -                   463
 ========ADIOS from NWChem: timestep -                   464
 ========ADIOS from NWChem: timestep -                   465
 ========ADIOS from NWChem: timestep -                   466
 ========ADIOS from NWChem: timestep -                   467
 ========ADIOS from NWChem: timestep -                   468
 ========ADIOS from NWChem: timestep -                   469
 ========ADIOS from NWChem: timestep -                   470
    0.94000  295.94 0.00E+00  5746.096 1.0001 1.0001 1.0000-1.2092E+05-4.5806E+03-7.2276E+04 3.3062E+04-3.9213E+04
 ========ADIOS from NWChem: timestep -                   471
 ========ADIOS from NWChem: timestep -                   472
 ========ADIOS from NWChem: timestep -                   473
 ========ADIOS from NWChem: timestep -                   474
 ========ADIOS from NWChem: timestep -                   475
 ========ADIOS from NWChem: timestep -                   476
 ========ADIOS from NWChem: timestep -                   477
 ========ADIOS from NWChem: timestep -                   478
 ========ADIOS from NWChem: timestep -                   479
 ========ADIOS from NWChem: timestep -                   480
    0.96000  296.93 0.00E+00  5746.085 1.0001 1.0001 1.0000-1.2220E+05-4.3502E+03-7.3090E+04 3.3173E+04-3.9917E+04
 ========ADIOS from NWChem: timestep -                   481
 ========ADIOS from NWChem: timestep -                   482
 ========ADIOS from NWChem: timestep -                   483
 ========ADIOS from NWChem: timestep -                   484
 ========ADIOS from NWChem: timestep -                   485
 ========ADIOS from NWChem: timestep -                   486
 ========ADIOS from NWChem: timestep -                   487
 ========ADIOS from NWChem: timestep -                   488
 ========ADIOS from NWChem: timestep -                   489
 ========ADIOS from NWChem: timestep -                   490
    0.98000  297.23 0.00E+00  5746.075 1.0001 1.0001 1.0000-1.2180E+05-4.2056E+03-7.2825E+04 3.3207E+04-3.9618E+04
 ========ADIOS from NWChem: timestep -                   491
 ========ADIOS from NWChem: timestep -                   492
 ========ADIOS from NWChem: timestep -                   493
 ========ADIOS from NWChem: timestep -                   494
 ========ADIOS from NWChem: timestep -                   495
 ========ADIOS from NWChem: timestep -                   496
 ========ADIOS from NWChem: timestep -                   497
 ========ADIOS from NWChem: timestep -                   498
 ========ADIOS from NWChem: timestep -                   499
 ========ADIOS from NWChem: timestep -                   500
    1.00000  295.45 0.00E+00  5746.064 1.0001 1.0001 1.0000-1.2106E+05-4.0983E+03-7.2266E+04 3.3008E+04-3.9258E+04

 MOLECULAR DYNAMICS STATISTICAL INFORMATION                                                                  10/20/20   13:08:15 

                                           Statistics over last      100 steps     Statistics over last      500 steps
                                           Average     RMS fluct     Drift/ps      Average     RMS fluct     Drift/ps

 Step                                    4.50500E+02  2.88661E+01  5.00000E+02   2.50500E+02  1.44337E+02  5.00000E+02             
 Time                                    9.01000E-01  5.77321E-02  1.00000E+00   5.01000E-01  2.88675E-01  1.00000E+00           ps
 Number solute-solute interactions   SR  2.40183E+06  8.41936E+03 -1.37043E+05   2.43537E+06  2.36369E+04 -4.98085E+04             
 Number of solute SHAKE iterations       1.00000E+00  0.00000E+00  0.00000E+00   1.00000E+00  0.00000E+00  0.00000E+00             
 Volume                                  5.74612E+03  3.08067E-02 -5.33613E-01   5.74633E+03  1.54046E-01 -5.33633E-01        nm**3
 Mass density                            1.96678E+01  1.05446E-04  1.82645E-03   1.96671E+01  5.27230E-04  1.82638E-03      kg/m**3
 Pressure                                0.00000E+00  0.00000E+00  0.00000E+00   0.00000E+00  0.00000E+00  0.00000E+00           Pa
 Pressure scaling                        1.00000E+00  7.05252E-08  4.69005E-13   1.00000E+00  5.84004E-08  3.54704E-14             
 Temperature                             2.98268E+02  2.95703E+00 -3.11552E+01   2.68008E+02  5.57485E+01  1.32378E+02            K
 Temperature solute                      2.98268E+02  2.95703E+00 -3.11552E+01   2.68008E+02  5.57485E+01  1.32378E+02            K
 Temperature scaling solute              9.99996E-01  9.79581E-05  1.00808E-03   1.01123E+00  1.42008E-01 -6.47078E-02             
 Energy electrostatic                   -1.20370E+05  1.02783E+03 -1.38941E+04  -1.15965E+05  6.42312E+03 -1.74690E+04       kJ/mol
 Energy van der Waals                   -4.66868E+03  3.32705E+02  5.43405E+03  -6.12602E+03  1.76948E+03  5.27140E+03       kJ/mol
 Energy potential                       -7.25836E+04  6.58034E+02  3.42425E+03  -7.51276E+04  2.64886E+03  7.05091E+03       kJ/mol
 Energy kinetic                          3.33227E+04  3.30361E+02 -3.48068E+03   2.99420E+04  6.22826E+03  1.47894E+04       kJ/mol
 Energy total                           -3.92609E+04  5.11495E+02 -5.64287E+01  -4.51856E+04  7.37607E+03  2.18403E+04       kJ/mol
 Synchronization time                    1.01064E+01  5.10723E-02 -2.04768E-01   1.01532E+01  4.96107E-02 -7.99604E-02            s
 Efficiency load balancing               1.37165E-01  5.73672E-04  1.04649E-03   1.36821E-01  1.30217E-03  4.07060E-04             
 Time per step                           7.80676E-01  3.77801E-03 -1.45507E-02   7.83961E-01  3.66163E-03 -5.66945E-03            s
 Virial tensor element (1,1)             2.75426E+03  4.11923E+03 -1.24441E+04   7.11956E+02  1.08596E+04  8.98637E+02       kJ/mol
 Virial tensor element (1,2)            -1.08190E+03  2.91655E+03  7.68024E+03  -2.95808E+02  6.30673E+03 -5.67498E+02       kJ/mol
 Virial tensor element (1,3)            -5.74751E+02  3.94594E+03  1.17846E+02  -5.23367E+02  5.02962E+03 -8.61414E+02       kJ/mol
 Virial tensor element (2,1)            -2.31822E+03  1.42019E+03  3.53139E+02  -8.14217E+02  3.55140E+03 -2.09060E+03       kJ/mol
 Virial tensor element (2,2)            -7.45491E+02  3.84783E+03  5.15314E+03   2.29744E+03  8.41415E+03 -4.00140E+03       kJ/mol
 Virial tensor element (2,3)             7.13799E+02  4.38267E+03  2.66730E+04  -4.35038E+02  5.94988E+03  1.40187E+03       kJ/mol
 Virial tensor element (3,1)             1.26909E+03  2.89028E+03 -2.22505E+04   1.20111E+03  5.80739E+03  3.39685E+03       kJ/mol
 Virial tensor element (3,2)             3.80876E+03  4.15440E+03  1.16798E+04  -6.56798E+01  6.21819E+03  2.47255E+03       kJ/mol
 Virial tensor element (3,3)            -4.58805E+02  4.33770E+03 -5.58465E+04   2.72026E+01  8.79946E+03 -3.52726E+03       kJ/mol
 Kinetic energy element (1,1)            6.34791E+02  5.83593E+01 -4.87200E+02   1.19033E+03  9.96919E+02 -1.91279E+03       kJ/mol
 Kinetic energy element (1,2)            1.32975E+01  9.29220E+01  1.46649E+03  -5.35897E+00  1.42626E+02 -5.32166E+01       kJ/mol
 Kinetic energy element (1,3)            1.97949E+01  3.77252E+01  3.80053E+02   2.44109E+02  2.97450E+02 -6.76815E+02       kJ/mol
 Kinetic energy element (2,1)            1.32975E+01  9.29220E+01  1.46649E+03  -5.35897E+00  1.42626E+02 -5.32166E+01       kJ/mol
 Kinetic energy element (2,2)            6.10202E+02  1.40746E+02 -2.09333E+03   1.08829E+03  7.11827E+02 -1.21637E+03       kJ/mol
 Kinetic energy element (2,3)            3.91911E+01  2.69841E+01  3.36114E+01   2.74235E+01  1.11698E+02  2.50342E+01       kJ/mol
 Kinetic energy element (3,1)            1.97949E+01  3.77252E+01  3.80053E+02   2.44109E+02  2.97450E+02 -6.76815E+02       kJ/mol
 Kinetic energy element (3,2)            3.91911E+01  2.69841E+01  3.36114E+01   2.74235E+01  1.11698E+02  2.50342E+01       kJ/mol
 Kinetic energy element (3,3)            5.71026E+02  5.12600E+01 -5.72477E+02   8.99636E+02  7.17409E+02 -1.15051E+03       kJ/mol
 Energy solute   1 intra-electrostatic  -1.65584E+05  7.99820E+02 -1.14071E+04  -1.61520E+05  6.11981E+03 -1.60060E+04       kJ/mol
 Energy solute   1 intra-van der Waals  -1.38715E+04  3.07775E+02  5.08658E+03  -1.49918E+04  1.37072E+03  4.02578E+03       kJ/mol
 Energy solute   1 bonds                 9.76891E+03  3.03426E+02  2.04750E+03   8.51643E+03  1.62454E+03  4.68074E+03       kJ/mol
[...]
 Energy solute   1 improper dihedrals    0.00000E+00  0.00000E+00  0.00000E+00   0.00000E+00  0.00000E+00  0.00000E+00       kJ/mol
 Energy solute   1 van der Waals 3rd     9.22674E+03  9.06743E+01 -9.12380E+02   9.02299E+03  3.60523E+02  5.03145E+02       kJ/mol
 Energy solute   1 electrostatic 3rd     4.53103E+04  2.71747E+02 -2.69573E+03   4.55005E+04  4.74300E+02 -3.60675E+02       kJ/mol
 Energy solute   1 van der Waals nb     -1.30557E+04  2.34685E+02  1.71235E+03  -1.42541E+04  1.33319E+03  2.14853E+03       kJ/mol
 Energy solute   1 electrostatic nb     -1.69651E+05  6.43360E+02 -2.96950E+03  -1.64504E+05  5.70628E+03 -8.65686E+03       kJ/mol
 Energy solute   1 kinetic               3.38303E+04  1.98374E+02 -1.04885E+03   3.15692E+04  4.98938E+03  5.59260E+03       kJ/mol
 Energy solute   1 potential            -7.40099E+04  4.48281E+02 -2.31362E+03  -7.42816E+04  2.23229E+03  2.64202E+03       kJ/mol
 ========ADIOS from NWChem: timestep -                   901
 ========ADIOS from NWChem: timestep -                   902
 ========ADIOS from NWChem: timestep -                   903
 ========ADIOS from NWChem: timestep -                   904
 ========ADIOS from NWChem: timestep -                   905
 ========ADIOS from NWChem: timestep -                   906
 ========ADIOS from NWChem: timestep -                   907
 ========ADIOS from NWChem: timestep -                   908
 ========ADIOS from NWChem: timestep -                   909
 ========ADIOS from NWChem: timestep -                   910

 MOLECULAR DYNAMICS TIME STEP INFORMATION                                                                    10/20/20   13:13:35 

    Time      Temp    Pres      Volume Tscalw Tscals  Pscal    U(ele)    U(vdW)      U(pot)     U(kin)     U(tot) 
     ps         K      Pa        nm**3                         kJ/mol    kJ/mol      kJ/mol     kJ/mol     kJ/mol 

    1.82000  299.69 0.00E+00  5745.626 0.9999 0.9999 1.0000-1.2497E+05-3.5340E+03-7.3972E+04 3.3482E+04-4.0490E+04
 ========ADIOS from NWChem: timestep -                   911
 ========ADIOS from NWChem: timestep -                   912
 ========ADIOS from NWChem: timestep -                   913
 ========ADIOS from NWChem: timestep -                   914
 ========ADIOS from NWChem: timestep -                   915
 ========ADIOS from NWChem: timestep -                   916
 ========ADIOS from NWChem: timestep -                   917
 ========ADIOS from NWChem: timestep -                   918
 ========ADIOS from NWChem: timestep -                   919
 ========ADIOS from NWChem: timestep -                   920
    1.84000  299.12 0.00E+00  5745.616 1.0000 1.0000 1.0000-1.2533E+05-3.4254E+03-7.4299E+04 3.3418E+04-4.0881E+04
 ========ADIOS from NWChem: timestep -                   921
 ========ADIOS from NWChem: timestep -                   922
 ========ADIOS from NWChem: timestep -                   923
 ========ADIOS from NWChem: timestep -                   924
 ========ADIOS from NWChem: timestep -                   925
 ========ADIOS from NWChem: timestep -                   926
 ========ADIOS from NWChem: timestep -                   927
 ========ADIOS from NWChem: timestep -                   928
 ========ADIOS from NWChem: timestep -                   929
 ========ADIOS from NWChem: timestep -                   930
    1.86000  299.81 0.00E+00  5745.605 0.9999 0.9999 1.0000-1.2559E+05-3.4087E+03-7.4562E+04 3.3495E+04-4.1067E+04
 ========ADIOS from NWChem: timestep -                   931
 ========ADIOS from NWChem: timestep -                   932
 ========ADIOS from NWChem: timestep -                   933
 ========ADIOS from NWChem: timestep -                   934
 ========ADIOS from NWChem: timestep -                   935
 ========ADIOS from NWChem: timestep -                   936
 ========ADIOS from NWChem: timestep -                   937
 ========ADIOS from NWChem: timestep -                   938
 ========ADIOS from NWChem: timestep -                   939
 ========ADIOS from NWChem: timestep -                   940
    1.88000  301.91 0.00E+00  5745.594 0.9999 0.9999 1.0000-1.2519E+05-3.6108E+03-7.4724E+04 3.3729E+04-4.0994E+04
 ========ADIOS from NWChem: timestep -                   941
 ========ADIOS from NWChem: timestep -                   942
 ========ADIOS from NWChem: timestep -                   943
 ========ADIOS from NWChem: timestep -                   944
 ========ADIOS from NWChem: timestep -                   945
 ========ADIOS from NWChem: timestep -                   946
 ========ADIOS from NWChem: timestep -                   947
 ========ADIOS from NWChem: timestep -                   948
 ========ADIOS from NWChem: timestep -                   949
 ========ADIOS from NWChem: timestep -                   950
    1.90000  297.98 0.00E+00  5745.584 1.0000 1.0000 1.0000-1.2510E+05-3.3226E+03-7.4428E+04 3.3290E+04-4.1137E+04
 ========ADIOS from NWChem: timestep -                   951
 ========ADIOS from NWChem: timestep -                   952
 ========ADIOS from NWChem: timestep -                   953
 ========ADIOS from NWChem: timestep -                   954
 ========ADIOS from NWChem: timestep -                   955
 ========ADIOS from NWChem: timestep -                   956
 ========ADIOS from NWChem: timestep -                   957
 ========ADIOS from NWChem: timestep -                   958
 ========ADIOS from NWChem: timestep -                   959
 ========ADIOS from NWChem: timestep -                   960
    1.92000  298.67 0.00E+00  5745.573 1.0000 1.0000 1.0000-1.2625E+05-3.5034E+03-7.5650E+04 3.3367E+04-4.2283E+04
 ========ADIOS from NWChem: timestep -                   961
 ========ADIOS from NWChem: timestep -                   962
 ========ADIOS from NWChem: timestep -                   963
 ========ADIOS from NWChem: timestep -                   964
 ========ADIOS from NWChem: timestep -                   965
 ========ADIOS from NWChem: timestep -                   966
 ========ADIOS from NWChem: timestep -                   967
 ========ADIOS from NWChem: timestep -                   968
 ========ADIOS from NWChem: timestep -                   969
 ========ADIOS from NWChem: timestep -                   970
    1.94000  305.17 0.00E+00  5745.562 0.9998 0.9998 1.0000-1.2594E+05-3.6508E+03-7.5437E+04 3.4094E+04-4.1343E+04
 ========ADIOS from NWChem: timestep -                   971
 ========ADIOS from NWChem: timestep -                   972
 ========ADIOS from NWChem: timestep -                   973
 ========ADIOS from NWChem: timestep -                   974
 ========ADIOS from NWChem: timestep -                   975
 ========ADIOS from NWChem: timestep -                   976
 ========ADIOS from NWChem: timestep -                   977
 ========ADIOS from NWChem: timestep -                   978
 ========ADIOS from NWChem: timestep -                   979
 ========ADIOS from NWChem: timestep -                   980
    1.96000  300.93 0.00E+00  5745.552 0.9999 0.9999 1.0000-1.2532E+05-3.7628E+03-7.4633E+04 3.3620E+04-4.1012E+04
 ========ADIOS from NWChem: timestep -                   981
 ========ADIOS from NWChem: timestep -                   982
 ========ADIOS from NWChem: timestep -                   983
 ========ADIOS from NWChem: timestep -                   984
 ========ADIOS from NWChem: timestep -                   985
 ========ADIOS from NWChem: timestep -                   986
 ========ADIOS from NWChem: timestep -                   987
 ========ADIOS from NWChem: timestep -                   988
 ========ADIOS from NWChem: timestep -                   989
 ========ADIOS from NWChem: timestep -                   990
    1.98000  298.99 0.00E+00  5745.541 1.0000 1.0000 1.0000-1.2597E+05-3.7969E+03-7.5072E+04 3.3403E+04-4.1669E+04
 ========ADIOS from NWChem: timestep -                   991
 ========ADIOS from NWChem: timestep -                   992
 ========ADIOS from NWChem: timestep -                   993
 ========ADIOS from NWChem: timestep -                   994
 ========ADIOS from NWChem: timestep -                   995
 ========ADIOS from NWChem: timestep -                   996
 ========ADIOS from NWChem: timestep -                   997
 ========ADIOS from NWChem: timestep -                   998
 ========ADIOS from NWChem: timestep -                   999
 ========ADIOS from NWChem: timestep -                  1000
    2.00000  297.65 0.00E+00  5745.530 1.0000 1.0000 1.0000-1.2636E+05-3.5437E+03-7.5166E+04 3.3253E+04-4.1912E+04

 MOLECULAR DYNAMICS STATISTICAL INFORMATION                                                                  10/20/20   13:14:45 

                                           Statistics over last      100 steps     Statistics over last     1000 steps
                                           Average     RMS fluct     Drift/ps      Average     RMS fluct     Drift/ps

 Step                                    9.50500E+02  2.88661E+01  5.00000E+02   5.00500E+02  2.88675E+02  5.00000E+02             
 Time                                    1.90100E+00  5.77321E-02  1.00000E+00   1.00100E+00  5.77350E-01  1.00000E+00           ps
 Number solute-solute interactions   SR  2.35464E+06  9.85922E+03 -1.51306E+05   2.40099E+06  3.89349E+04 -6.16759E+04             
 Number of solute SHAKE iterations       1.00000E+00  0.00000E+00  0.00000E+00   1.00000E+00  0.00000E+00  0.00000E+00             
 Volume                                  5.74558E+03  3.08036E-02 -5.33564E-01   5.74606E+03  3.08079E-01 -5.33608E-01        nm**3
 Mass density                            1.96696E+01  1.05454E-04  1.82662E-03   1.96680E+01  1.05451E-03  1.82647E-03      kg/m**3
 Pressure                                0.00000E+00  0.00000E+00  0.00000E+00   0.00000E+00  0.00000E+00  0.00000E+00           Pa
 Pressure scaling                        1.00000E+00  7.05252E-08  1.19383E-12   1.00000E+00  1.22037E-07 -4.97949E-14             
 Temperature                             2.99834E+02  2.37757E+00 -3.18910E+00   2.84299E+02  4.26895E+01  4.11502E+01            K
 Temperature solute                      2.99834E+02  2.37757E+00 -3.18910E+00   2.84299E+02  4.26895E+01  4.11502E+01            K
 Temperature scaling solute              9.99943E-01  7.86006E-05  1.11523E-04   1.00557E+00  1.00574E-01 -1.65773E-02             
 Energy electrostatic                   -1.25552E+05  3.64386E+02 -3.05578E+03  -1.19658E+05  5.95387E+03 -8.34500E+03       kJ/mol
 Energy van der Waals                   -3.53695E+03  1.48543E+02 -1.43740E+03  -5.06170E+03  1.66542E+03  2.38906E+03       kJ/mol
 Energy potential                       -7.47192E+04  5.00055E+02 -2.99989E+03  -7.43253E+04  2.12769E+03  1.80488E+03       kJ/mol
 Energy kinetic                          3.34977E+04  2.65624E+02 -3.56288E+02   3.17621E+04  4.76930E+03  4.59733E+03       kJ/mol
 Energy total                           -4.12215E+04  3.92397E+02 -3.35618E+03  -4.25633E+04  5.86445E+03  6.40221E+03       kJ/mol
 Synchronization time                    1.00553E+01  4.23381E-02 -7.79106E-02   1.01095E+01  6.76592E-02 -7.98399E-02            s
 Efficiency load balancing               1.37525E-01  9.57908E-04 -1.78623E-04   1.37149E-01  1.19880E-03  5.48057E-04             
 Time per step                           7.77052E-01  3.09612E-03 -5.81242E-03   7.80888E-01  4.91226E-03 -5.63943E-03            s
 Virial tensor element (1,1)             1.80730E+03  3.02700E+03  3.40597E+04   6.97836E+02  8.06122E+03  3.41341E+02       kJ/mol
 Virial tensor element (1,2)             2.00943E+02  4.05354E+03  2.60693E+04  -6.95488E+01  5.05725E+03  1.60131E+02       kJ/mol
 Virial tensor element (1,3)            -1.40774E+03  2.89472E+03  2.26267E+04  -1.42650E+02  4.74681E+03  1.38336E+02       kJ/mol
 Virial tensor element (2,1)             1.85727E+02  2.46415E+03 -1.37884E+04  -2.07614E+02  3.18049E+03  5.22296E+02       kJ/mol
 Virial tensor element (2,2)             2.76119E+02  1.59049E+03 -3.33838E+03   1.74747E+03  6.47515E+03 -1.46884E+03       kJ/mol
 Virial tensor element (2,3)            -9.41381E+02  3.74618E+03  4.90356E+04  -2.29705E+02  4.82096E+03  5.44506E+02       kJ/mol
 Virial tensor element (3,1)            -7.19417E+01  6.32513E+03  4.54513E+04   5.66222E+02  5.69442E+03 -4.51683E+02       kJ/mol
 Virial tensor element (3,2)             2.90923E+01  2.25347E+03  1.22404E+04  -6.97842E+00  5.47876E+03  2.41150E+01       kJ/mol
 Virial tensor element (3,3)             3.13268E+03  4.15680E+03  4.14604E+03   7.12180E+02  7.24300E+03  9.27501E+02       kJ/mol
 Kinetic energy element (1,1)            3.37337E+02  7.79492E+01 -1.09364E+02   8.01472E+02  8.07736E+02 -8.39616E+02       kJ/mol
 Kinetic energy element (1,2)            4.53148E+01  3.60502E+01 -1.26896E+02   2.79351E+01  1.11037E+02  4.16926E+01       kJ/mol
 Kinetic energy element (1,3)            3.34677E+01  2.29498E+01  2.75747E+02   1.35153E+02  2.38364E+02 -2.51521E+02       kJ/mol
 Kinetic energy element (2,1)            4.53148E+01  3.60502E+01 -1.26896E+02   2.79351E+01  1.11037E+02  4.16926E+01       kJ/mol
 Kinetic energy element (2,2)            3.03093E+02  3.63998E+01 -5.56814E+02   7.37624E+02  6.17824E+02 -7.11913E+02       kJ/mol
 Kinetic energy element (2,3)            3.85777E-01  1.81482E+01 -5.46392E+01   3.47553E+01  8.79532E+01  5.03265E+00       kJ/mol
 Kinetic energy element (3,1)            3.34677E+01  2.29498E+01  2.75747E+02   1.35153E+02  2.38364E+02 -2.51521E+02       kJ/mol
 Kinetic energy element (3,2)            3.85777E-01  1.81482E+01 -5.46392E+01   3.47553E+01  8.79532E+01  5.03265E+00       kJ/mol
 Kinetic energy element (3,3)            2.77358E+02  7.19033E+01  8.37507E+02   6.18980E+02  5.83402E+02 -5.87423E+02       kJ/mol
 Energy solute   1 intra-electrostatic  -1.70763E+05  4.46482E+02 -2.25873E+03  -1.65130E+05  5.73165E+03 -8.00321E+03       kJ/mol
 Energy solute   1 intra-van der Waals  -1.28024E+04  9.17654E+01 -7.94258E+02  -1.41089E+04  1.33798E+03  1.95745E+03       kJ/mol
 Energy solute   1 bonds                 1.02148E+04  1.87329E+02  5.08276E+02   9.26862E+03  1.38502E+03  1.77322E+03       kJ/mol
 Energy solute   1 angles                1.85228E+04  2.30593E+02  4.83414E+02   1.58787E+04  3.18518E+03  4.75478E+03       kJ/mol
 Energy solute   1 Urey-Bradley          0.00000E+00  0.00000E+00  0.00000E+00   0.00000E+00  0.00000E+00  0.00000E+00       kJ/mol
 Energy solute   1 proper dihedrals      2.56320E+04  9.39321E+01  5.01590E+02   2.52469E+04  1.08981E+03  1.23282E+03       kJ/mol
 Energy solute   1 improper dihedrals    0.00000E+00  0.00000E+00  0.00000E+00   0.00000E+00  0.00000E+00  0.00000E+00       kJ/mol
 Energy solute   1 van der Waals 3rd     9.26542E+03  1.44096E+02 -6.43137E+02   9.04723E+03  3.52626E+02  4.31607E+02       kJ/mol
 Energy solute   1 electrostatic 3rd     4.52114E+04  2.49953E+02 -7.97048E+02   4.54716E+04  4.65011E+02 -3.41790E+02       kJ/mol
 Energy solute   1 van der Waals nb     -1.28024E+04  9.17654E+01 -7.94258E+02  -1.41089E+04  1.33798E+03  1.95745E+03       kJ/mol
 Energy solute   1 electrostatic nb     -1.70763E+05  4.46482E+02 -2.25873E+03  -1.65130E+05  5.73165E+03 -8.00321E+03       kJ/mol
 Energy solute   1 kinetic               3.34977E+04  2.65624E+02 -3.56288E+02   3.17621E+04  4.76930E+03  4.59733E+03       kJ/mol
 Energy solute   1 potential            -7.47192E+04  5.00055E+02 -2.99989E+03  -7.43253E+04  2.12769E+03  1.80488E+03       kJ/mol

 TIMING ANALYSIS

                    Number of calls         Average times per call

                                               Wall            CPU

 MD step                 1000                 0.783          0.781

    6  GA coords            3                 0.006          0.006
   33  prefetch           629                 0.000          0.000
   34  wait               629                 0.000          0.000
   35  accumulate         629                 0.000          0.000
   36  get                139                 0.000          0.000
   37  forces             139                 0.000          0.000
   38  accumulate         139                 0.000          0.000
  201  MD step           1000                 0.783          0.781
  202  barrier           1000                 0.731          0.731
  204  barrier           1000                 0.731          0.731

 Task  times  cpu:      780.9s     wall:      789.4s


                                NWChem Input Module
                                -------------------


 Summary of allocated global arrays
-----------------------------------
  No active global arrays



                         GA Statistics for process    0
                         ------------------------------

       create   destroy   get      put      acc     scatter   gather  read&inc
calls:    7        7     2.68e+04 5826     2000        0        0        0     
number of processes/call 1.00e+00 1.00e+00 1.00e+00 0.00e+00 0.00e+00
bytes total:             8.63e+08 2.54e+08 3.20e+08 0.00e+00 0.00e+00 0.00e+00
bytes remote:            5.37e+08 1.78e+06 0.00e+00 0.00e+00 0.00e+00 0.00e+00
Max memory consumed for GA by this process: 4406256 bytes

MA_summarize_allocated_blocks: starting scan ...
MA_summarize_allocated_blocks: scan completed: 0 heap blocks, 0 stack blocks
MA usage statistics:

	allocation statistics:
					      heap	     stack
					      ----	     -----
	current number of blocks	         0	         0
	maximum number of blocks	        22	        96
	current total bytes		         0	         0
	maximum total bytes		 101731432	 197014424
	maximum total K-bytes		    101732	    197015
	maximum total M-bytes		       102	       198


                                     CITATION
                                     --------
                Please cite the following reference when publishing
                           results obtained with NWChem:

                 M. Valiev, E.J. Bylaska, N. Govind, K. Kowalski,
              T.P. Straatsma, H.J.J. van Dam, D. Wang, J. Nieplocha,
                        E. Apra, T.L. Windus, W.A. de Jong
                 "NWChem: a comprehensive and scalable open-source
                  solution for large scale molecular simulations"
                      Comput. Phys. Commun. 181, 1477 (2010)
                           doi:10.1016/j.cpc.2010.04.018

                                      AUTHORS
                                      -------
          E. Apra, E. J. Bylaska, W. A. de Jong, N. Govind, K. Kowalski,
       T. P. Straatsma, M. Valiev, H. J. J. van Dam, D. Wang, T. L. Windus,
        J. Hammond, J. Autschbach, K. Bhaskaran-Nair, J. Brabec, K. Lopata,
    S. A. Fischer, S. Krishnamoorthy, M. Jacquelin, W. Ma, M. Klemm, O. Villa,
      Y. Chen, V. Anisimov, F. Aquino, S. Hirata, M. T. Hackler, V. Konjkov,
            D. Mejia-Rodriguez, T. Risthaus, M. Malagoli, A. Marenich,
   A. Otero-de-la-Roza, J. Mullin, P. Nichols, R. Peverati, J. Pittner, Y. Zhao,
        P.-D. Fan, A. Fonari, M. J. Williamson, R. J. Harrison, J. R. Rehr,
      M. Dupuis, D. Silverstein, D. M. A. Smith, J. Nieplocha, V. Tipparaju,
    M. Krishnan, B. E. Van Kuiken, A. Vazquez-Mayagoitia, L. Jensen, M. Swart,
      Q. Wu, T. Van Voorhis, A. A. Auer, M. Nooijen, L. D. Crosby, E. Brown,
      G. Cisneros, G. I. Fann, H. Fruchtl, J. Garza, K. Hirao, R. A. Kendall,
      J. A. Nichols, K. Tsemekhman, K. Wolinski, J. Anchell, D. E. Bernholdt,
      P. Borowski, T. Clark, D. Clerc, H. Dachsel, M. J. O. Deegan, K. Dyall,
    D. Elwood, E. Glendening, M. Gutowski, A. C. Hess, J. Jaffe, B. G. Johnson,
     J. Ju, R. Kobayashi, R. Kutteh, Z. Lin, R. Littlefield, X. Long, B. Meng,
      T. Nakajima, S. Niu, L. Pollack, M. Rosing, K. Glaesemann, G. Sandrone,
      M. Stave, H. Taylor, G. Thomas, J. H. van Lenthe, A. T. Wong, Z. Zhang.

 Total times  cpu:      780.9s     wall:      790.9s
