 argument  1 = h2co.nw



============================== echo of input deck ==============================
start h2co_dat
echo

geometry
  H  0.3  1.0  0.7
  H  0.0 -1.0  1.0
  C  0.0  0.0  0.0
  O  0.0  0.0 -1.0
end

basis "qsl" nosegment
  * library 6-31g
end

basis "noqsl" segment
  * library 6-31g
end

set "ao basis" "qsl"
scf
  direct
end

driver
  clear
  maxiter 50
end

task scf optimize
================================================================================


                                         
                                         


             Northwest Computational Chemistry Package (NWChem) 7.0.1
             --------------------------------------------------------


                    Environmental Molecular Sciences Laboratory
                       Pacific Northwest National Laboratory
                                Richland, WA 99352

                              Copyright (c) 1994-2020
                       Pacific Northwest National Laboratory
                            Battelle Memorial Institute

             NWChem is an open-source computational chemistry package
                        distributed under the terms of the
                      Educational Community License (ECL) 2.0
             A copy of the license is included with this distribution
                              in the LICENSE.TXT file

                                  ACKNOWLEDGMENT
                                  --------------

            This software and its documentation were developed at the
            EMSL at Pacific Northwest National Laboratory, a multiprogram
            national laboratory, operated for the U.S. Department of Energy
            by Battelle under Contract Number DE-AC05-76RL01830. Support
            for this work was provided by the Department of Energy Office
            of Biological and Environmental Research, Office of Basic
            Energy Sciences, and the Office of Advanced Scientific Computing.


           Job information
           ---------------

    hostname        = erato
    program         = ../../../bin/LINUX64/nwchem
    date            = Sun Nov 28 23:23:45 2021

    compiled        = Sun_Nov_28_23:22:45_2021
    source          = /home/hvandam/nwchem-1
    nwchem branch   = 7.0.0
    nwchem revision = nwchem_on_git-2028-gf3ab5e5fb5
    ga revision     = 5.7.2
    use scalapack   = F
    input           = h2co.nw
    prefix          = h2co_dat.
    data base       = ./h2co_dat.db
    status          = startup
    nproc           =        1
    time left       =     -1s



           Memory information
           ------------------

    heap     =   13107196 doubles =    100.0 Mbytes
    stack    =   13107201 doubles =    100.0 Mbytes
    global   =   26214400 doubles =    200.0 Mbytes (distinct from heap & stack)
    total    =   52428797 doubles =    400.0 Mbytes
    verify   = yes
    hardfail = no 


           Directory information
           ---------------------

  0 permanent = .
  0 scratch   = .




                                NWChem Input Module
                                -------------------



 Scaling coordinates for geometry "geometry" by  1.889725989
 (inverse scale =  0.529177249)

 C1  symmetry detected

          ------
          auto-z
          ------
  autoz: The atoms group into disjoint clusters
 cluster   1:    1    3    4
 cluster   2:    2
 Connecting clusters   1   2 via atoms    3    2 r = 1.41
  autoz: regenerating connections with new bonds
  Looking for out-of-plane bends
  no constraints, skipping    0.0000000000000000     
  no constraints, skipping    0.0000000000000000     


                             Geometry "geometry" -> ""
                             -------------------------

 Output coordinates in angstroms (scale by  1.889725989 to convert to a.u.)

  No.       Tag          Charge          X              Y              Z
 ---- ---------------- ---------- -------------- -------------- --------------
    1 H                    1.0000     1.06204121     1.06811862     0.08112775
    2 H                    1.0000    -0.95103759     1.42518576     0.08522725
    3 C                    6.0000     0.00811626     0.39271250    -0.03319098
    4 O                    8.0000    -0.01996265    -0.60619742     0.00409886

      Atomic Mass 
      ----------- 

      H                  1.007825
      C                 12.000000
      O                 15.994910


 Effective nuclear repulsion energy (a.u.)      34.4456535998

            Nuclear Dipole moment (a.u.) 
            ----------------------------
        X                 Y               Z
 ---------------- ---------------- ----------------
    -0.0000000000     0.0000000000    -0.0000000000



                                Z-matrix (autoz)
                                -------- 

 Units are Angstrom for bonds and degrees for angles

      Type          Name      I     J     K     L     M      Value
      ----------- --------  ----- ----- ----- ----- ----- ----------
    1 Stretch                  1     3                       1.25698
    2 Stretch                  2     3                       1.41421
    3 Stretch                  3     4                       1.00000
    4 Bend                     1     3     2                99.71592
    5 Bend                     1     3     4               123.84100
    6 Bend                     2     3     4               135.00000
    7 Torsion                  1     3     2     4        -165.98710
    8 Torsion                  1     3     4     2         163.30076
    9 Torsion                  2     3     1     4         168.10362
   10 Torsion                  1     4     3     2        -163.30076
   11 Torsion                  1     2     3     4         165.98710
   12 Torsion                  2     1     3     4        -168.10362


            XYZ format geometry
            -------------------
     4
 geometry
 H                     1.06204121     1.06811862     0.08112775
 H                    -0.95103759     1.42518576     0.08522725
 C                     0.00811626     0.39271250    -0.03319098
 O                    -0.01996265    -0.60619742     0.00409886

 ==============================================================================
                                internuclear distances
 ------------------------------------------------------------------------------
       center one      |      center two      | atomic units |  angstroms
 ------------------------------------------------------------------------------
    4 O                |   3 C                |     1.88973  |     1.00000
 ------------------------------------------------------------------------------
                         number of included internuclear distances:          1
 ==============================================================================



 bas_input: nosegment option disabled


 Summary of "qsl" -> "" (cartesian)
 ------------------------------------------------------------------------------
       Tag                 Description            Shells   Functions and Types
 ---------------- ------------------------------  ------  ---------------------
 *                           6-31g                    on all atoms 




 Summary of "noqsl" -> "" (cartesian)
 ------------------------------------------------------------------------------
       Tag                 Description            Shells   Functions and Types
 ---------------- ------------------------------  ------  ---------------------
 *                           6-31g                    on all atoms 



  Deleted DRIVER restart files 



                           NWChem Geometry Optimization
                           ----------------------------


  no constraints, skipping    0.0000000000000000     
 maximum gradient threshold         (gmax) =   0.000450
 rms gradient threshold             (grms) =   0.000300
 maximum cartesian step threshold   (xmax) =   0.001800
 rms cartesian step threshold       (xrms) =   0.001200
 fixed trust radius                (trust) =   0.300000
 maximum step size to saddle      (sadstp) =   0.100000
 energy precision                  (eprec) =   1.0D-07
 maximum number of steps          (nptopt) =   50
 initial hessian option           (inhess) =    0
 line search option               (linopt) =    1
 hessian update option            (modupd) =    1
 saddle point option              (modsad) =    0
 initial eigen-mode to follow     (moddir) =    0
 initial variable to follow       (vardir) =    0
 follow first negative mode     (firstneg) =    T
 apply conjugacy                    (opcg) =    F
 source of zmatrix                         =   autoz   


          -------------------
          Energy Minimization
          -------------------


 Names of Z-matrix variables 
    1              2              3              4              5         
    6              7              8              9             10         
   11             12         

 Variables with the same non-blank name are constrained to be equal


 Using diagonal initial Hessian 
 Scaling for Hessian diagonals: bonds = 1.00  angles = 0.25  torsions = 0.10

          --------
          Step   0
          --------


                         Geometry "geometry" -> "geometry"
                         ---------------------------------

 Output coordinates in angstroms (scale by  1.889725989 to convert to a.u.)

  No.       Tag          Charge          X              Y              Z
 ---- ---------------- ---------- -------------- -------------- --------------
    1 H                    1.0000     1.06204121     1.06811862     0.08112775
    2 H                    1.0000    -0.95103759     1.42518576     0.08522725
    3 C                    6.0000     0.00811626     0.39271250    -0.03319098
    4 O                    8.0000    -0.01996265    -0.60619742     0.00409886

      Atomic Mass 
      ----------- 

      H                  1.007825
      C                 12.000000
      O                 15.994910


 Effective nuclear repulsion energy (a.u.)      34.4456535998

            Nuclear Dipole moment (a.u.) 
            ----------------------------
        X                 Y               Z
 ---------------- ---------------- ----------------
    -0.0000000000     0.0000000000    -0.0000000000

                      Basis "ao basis" -> "qsl" (cartesian)
                      -----
  H (Hydrogen)
  ------------
            Exponent  Coefficients 
       -------------- ---------------------------------------------------------
  1 S  1.87311370E+01  0.033495
  1 S  2.82539370E+00  0.234727
  1 S  6.40121700E-01  0.813757

  2 S  1.61277800E-01  1.000000

  C (Carbon)
  ----------
            Exponent  Coefficients 
       -------------- ---------------------------------------------------------
  1 S  3.04752490E+03  0.001835
  1 S  4.57369510E+02  0.014037
  1 S  1.03948690E+02  0.068843
  1 S  2.92101550E+01  0.232184
  1 S  9.28666300E+00  0.467941
  1 S  3.16392700E+00  0.362312

  2 SP 7.86827240E+00 -0.119332  0.068999
  2 SP 1.88128850E+00 -0.160854  0.316424
  2 SP 5.44249300E-01  1.143456  0.744308

  3 SP 1.68714400E-01  1.000000  1.000000

  O (Oxygen)
  ----------
            Exponent  Coefficients 
       -------------- ---------------------------------------------------------
  1 S  5.48467170E+03  0.001831
  1 S  8.25234950E+02  0.013950
  1 S  1.88046960E+02  0.068445
  1 S  5.29645000E+01  0.232714
  1 S  1.68975700E+01  0.470193
  1 S  5.79963530E+00  0.358521

  2 SP 1.55396160E+01 -0.110778  0.070874
  2 SP 3.59993360E+00 -0.148026  0.339753
  2 SP 1.01376180E+00  1.130767  0.727159

  3 SP 2.70005800E-01  1.000000  1.000000



 Summary of "ao basis" -> "qsl" (cartesian)
 ------------------------------------------------------------------------------
       Tag                 Description            Shells   Functions and Types
 ---------------- ------------------------------  ------  ---------------------
 H                           6-31g                   2        2   2s
 C                           6-31g                   3        9   3s2p
 O                           6-31g                   3        9   3s2p


                                 NWChem SCF Module
                                 -----------------



  ao basis        = "qsl"
  functions       =    22
  atoms           =     4
  closed shells   =     8
  open shells     =     0
  charge          =   0.00
  wavefunction    = RHF 
  input vectors   = atomic
  output vectors  = ./h2co_dat.movecs
  use symmetry    = F
  symmetry adapt  = F


 Summary of "ao basis" -> "qsl" (cartesian)
 ------------------------------------------------------------------------------
       Tag                 Description            Shells   Functions and Types
 ---------------- ------------------------------  ------  ---------------------
 H                           6-31g                   2        2   2s
 C                           6-31g                   3        9   3s2p
 O                           6-31g                   3        9   3s2p



 Forming initial guess at       0.1s


      Superposition of Atomic Density Guess
      -------------------------------------

 Sum of atomic energies:        -113.41107146

      Non-variational initial energy
      ------------------------------

 Total energy =    -114.449562
 1-e energy   =    -221.707985
 2-e energy   =      72.812769
 HOMO         =      -0.246796
 LUMO         =       0.046354


 Starting SCF solution at       0.1s



 ----------------------------------------------
         Quadratically convergent ROHF

 Convergence threshold     :          1.000E-04
 Maximum no. of iterations :           30
 Final Fock-matrix accuracy:          1.000E-07
 ----------------------------------------------


              iter       energy          gnorm     gmax       time
             ----- ------------------- --------- --------- --------
                 1     -113.5948395481  9.38D-01  4.34D-01      0.1
                 2     -113.6425553941  2.29D-01  8.69D-02      0.2
                 3     -113.6473843294  9.59D-03  3.73D-03      0.4
                 4     -113.6473989004  4.46D-05  1.48D-05      0.6


       Final RHF  results 
       ------------------ 

         Total SCF energy =   -113.647398900435
      One-electron energy =   -222.294257028570
      Two-electron energy =     74.201204528342
 Nuclear repulsion energy =     34.445653599794

        Time for solution =      0.5s


             Final eigenvalues
             -----------------

              1      
    1  -20.6286
    2  -11.3961
    3   -1.6284
    4   -0.8023
    5   -0.7462
    6   -0.7023
    7   -0.6727
    8   -0.3693
    9    0.1576
   10    0.1982
   11    0.3199
   12    0.3793
   13    0.6945
   14    0.7819
   15    0.9519
   16    1.0280
   17    1.0471
   18    1.0784

                       ROHF Final Molecular Orbital Analysis
                       -------------------------------------

 Vector    2  Occ=2.000000D+00  E=-1.139612D+01
   Bfn.  Coefficient  Atom+Function         Bfn.  Coefficient  Atom+Function  
  ----- ------------  ---------------      ----- ------------  ---------------
     5      0.996072  3 C  s          

 Vector    3  Occ=2.000000D+00  E=-1.628441D+00
   Bfn.  Coefficient  Atom+Function         Bfn.  Coefficient  Atom+Function  
  ----- ------------  ---------------      ----- ------------  ---------------
    15      0.440625  4 O  ls                19      0.289163  4 O  ls         
     6      0.266198  3 C  ls                 8     -0.260034  3 C  ly         
    17      0.227499  4 O  ly                14     -0.199738  4 O  s          

 Vector    4  Occ=2.000000D+00  E=-8.023038D-01
   Bfn.  Coefficient  Atom+Function         Bfn.  Coefficient  Atom+Function  
  ----- ------------  ---------------      ----- ------------  ---------------
    19      0.411182  4 O  ls                 6     -0.328213  3 C  ls         
    17     -0.313823  4 O  ly                10     -0.311546  3 C  ls         
    15      0.232201  4 O  ls                 1     -0.152157  1 H  s          

 Vector    5  Occ=2.000000D+00  E=-7.462295D-01
   Bfn.  Coefficient  Atom+Function         Bfn.  Coefficient  Atom+Function  
  ----- ------------  ---------------      ----- ------------  ---------------
    16      0.461594  4 O  lx                 7      0.356422  3 C  lx         
    20      0.249060  4 O  lx                17     -0.215076  4 O  ly         
    19      0.169316  4 O  ls         

 Vector    6  Occ=2.000000D+00  E=-7.022847D-01
   Bfn.  Coefficient  Atom+Function         Bfn.  Coefficient  Atom+Function  
  ----- ------------  ---------------      ----- ------------  ---------------
     8      0.402716  3 C  ly                17     -0.395249  4 O  ly         
    19      0.249254  4 O  ls                10      0.243398  3 C  ls         
    16     -0.162959  4 O  lx         

 Vector    7  Occ=2.000000D+00  E=-6.726601D-01
   Bfn.  Coefficient  Atom+Function         Bfn.  Coefficient  Atom+Function  
  ----- ------------  ---------------      ----- ------------  ---------------
    18      0.505304  4 O  lz                 9      0.374499  3 C  lz         
    22      0.312984  4 O  lz         

 Vector    8  Occ=2.000000D+00  E=-3.692820D-01
   Bfn.  Coefficient  Atom+Function         Bfn.  Coefficient  Atom+Function  
  ----- ------------  ---------------      ----- ------------  ---------------
    16      0.391602  4 O  lx                 4      0.382686  2 H  s          
    20      0.373935  4 O  lx                 2     -0.337797  1 H  s          
     1     -0.236001  1 H  s                  3      0.236911  2 H  s          
     7     -0.196021  3 C  lx                11     -0.183930  3 C  lx         

 Vector    9  Occ=0.000000D+00  E= 1.575929D-01
   Bfn.  Coefficient  Atom+Function         Bfn.  Coefficient  Atom+Function  
  ----- ------------  ---------------      ----- ------------  ---------------
    10      1.071695  3 C  ls                 4     -0.795920  2 H  s          
     2     -0.728514  1 H  s                 13     -0.463326  3 C  lz         
    22      0.381733  4 O  lz                12      0.345477  3 C  ly         
    18      0.249181  4 O  lz                 9     -0.233487  3 C  lz         
     8      0.202224  3 C  ly         

 Vector   10  Occ=0.000000D+00  E= 1.982249D-01
   Bfn.  Coefficient  Atom+Function         Bfn.  Coefficient  Atom+Function  
  ----- ------------  ---------------      ----- ------------  ---------------
    10      0.904790  3 C  ls                13      0.740242  3 C  lz         
     4     -0.723284  2 H  s                  2     -0.655535  1 H  s          
    22     -0.523899  4 O  lz                12      0.312671  3 C  ly         
     9      0.308520  3 C  lz                18     -0.300155  4 O  lz         
     8      0.170839  3 C  ly         

 Vector   11  Occ=0.000000D+00  E= 3.198566D-01
   Bfn.  Coefficient  Atom+Function         Bfn.  Coefficient  Atom+Function  
  ----- ------------  ---------------      ----- ------------  ---------------
     2      1.504421  1 H  s                 11     -1.270756  3 C  lx         
     4     -0.722663  2 H  s                 12     -0.587037  3 C  ly         
    19     -0.582666  4 O  ls                20      0.574278  4 O  lx         
     7     -0.487783  3 C  lx                16      0.240266  4 O  lx         
    21     -0.151227  4 O  ly         

 Vector   12  Occ=0.000000D+00  E= 3.792843D-01
   Bfn.  Coefficient  Atom+Function         Bfn.  Coefficient  Atom+Function  
  ----- ------------  ---------------      ----- ------------  ---------------
    19      2.576775  4 O  ls                12      2.189574  3 C  ly         
    10     -2.080856  3 C  ls                 4     -0.688218  2 H  s          
    21      0.653082  4 O  ly                11     -0.305374  3 C  lx         
    20      0.187096  4 O  lx                 2      0.169565  1 H  s          
     7     -0.163492  3 C  lx         

 Vector   13  Occ=0.000000D+00  E= 6.945002D-01
   Bfn.  Coefficient  Atom+Function         Bfn.  Coefficient  Atom+Function  
  ----- ------------  ---------------      ----- ------------  ---------------
     9      1.079845  3 C  lz                13     -1.038835  3 C  lz         

 Vector   14  Occ=0.000000D+00  E= 7.818639D-01
   Bfn.  Coefficient  Atom+Function         Bfn.  Coefficient  Atom+Function  
  ----- ------------  ---------------      ----- ------------  ---------------
    11      1.826142  3 C  lx                 7     -0.959130  3 C  lx         
     2     -0.711972  1 H  s                  4      0.602559  2 H  s          
    10      0.315538  3 C  ls                16     -0.220129  4 O  lx         
     1     -0.194391  1 H  s                 19     -0.166820  4 O  ls         
    12     -0.154548  3 C  ly         

 Vector   15  Occ=0.000000D+00  E= 9.518671D-01
   Bfn.  Coefficient  Atom+Function         Bfn.  Coefficient  Atom+Function  
  ----- ------------  ---------------      ----- ------------  ---------------
    10      2.794322  3 C  ls                 4     -1.248156  2 H  s          
    21     -1.171666  4 O  ly                19     -0.975521  4 O  ls         
     8     -0.776924  3 C  ly                 2     -0.767408  1 H  s          
    12      0.695368  3 C  ly                 6     -0.663044  3 C  ls         
     3      0.559914  2 H  s                 17      0.285365  4 O  ly         

 Vector   16  Occ=0.000000D+00  E= 1.027999D+00
   Bfn.  Coefficient  Atom+Function         Bfn.  Coefficient  Atom+Function  
  ----- ------------  ---------------      ----- ------------  ---------------
     1      1.001226  1 H  s                 12     -0.873051  3 C  ly         
     6      0.794034  3 C  ls                10     -0.701365  3 C  ls         
     3      0.640295  2 H  s                 19     -0.488350  4 O  ls         
     2     -0.333594  1 H  s                  8      0.193953  3 C  ly         
    21     -0.186303  4 O  ly                 7     -0.178454  3 C  lx         

 Vector   17  Occ=0.000000D+00  E= 1.047136D+00
   Bfn.  Coefficient  Atom+Function         Bfn.  Coefficient  Atom+Function  
  ----- ------------  ---------------      ----- ------------  ---------------
     3      0.933439  2 H  s                  4     -0.935471  2 H  s          
     2      0.919519  1 H  s                 21      0.922323  4 O  ly         
    10     -0.623306  3 C  ls                 1     -0.542028  1 H  s          
    19      0.516935  4 O  ls                11     -0.492372  3 C  lx         
     6     -0.378788  3 C  ls                 8      0.374138  3 C  ly         

 Vector   18  Occ=0.000000D+00  E= 1.078428D+00
   Bfn.  Coefficient  Atom+Function         Bfn.  Coefficient  Atom+Function  
  ----- ------------  ---------------      ----- ------------  ---------------
     6      1.570430  3 C  ls                21     -1.191189  4 O  ly         
     2      1.132574  1 H  s                 10     -1.006441  3 C  ls         
     1     -0.582916  1 H  s                 12     -0.565989  3 C  ly         
    19     -0.545358  4 O  ls                11     -0.366015  3 C  lx         
    17      0.328904  4 O  ly                 7      0.207937  3 C  lx         


 center of mass
 --------------
 x =  -0.00692866 y =  -0.15557732 z =  -0.01039450

 moments of inertia (a.u.)
 ------------------
          38.383194184277           0.000000000000          -0.000000000000
           0.000000000000           7.433537773251           0.000000000000
          -0.000000000000           0.000000000000          45.627221561236

  Mulliken analysis of the total density
  --------------------------------------

    Atom       Charge   Shell Charges
 -----------   ------   -------------------------------------------------------
    1 H    1     0.92   0.49  0.44
    2 H    1     0.98   0.43  0.55
    3 C    6     5.89   2.00  2.69  1.21
    4 O    8     8.21   2.00  3.94  2.27
                      Basis "ao basis" -> "noqsl" (cartesian)
                      -----
  H (Hydrogen)
  ------------
            Exponent  Coefficients 
       -------------- ---------------------------------------------------------
  1 S  1.87311370E+01  0.033495
  1 S  2.82539370E+00  0.234727
  1 S  6.40121700E-01  0.813757

  2 S  1.61277800E-01  1.000000

  C (Carbon)
  ----------
            Exponent  Coefficients 
       -------------- ---------------------------------------------------------
  1 S  3.04752490E+03  0.001835
  1 S  4.57369510E+02  0.014037
  1 S  1.03948690E+02  0.068843
  1 S  2.92101550E+01  0.232184
  1 S  9.28666300E+00  0.467941
  1 S  3.16392700E+00  0.362312

  2 S  7.86827240E+00 -0.119332
  2 S  1.88128850E+00 -0.160854
  2 S  5.44249300E-01  1.143456

  3 P  7.86827240E+00  0.068999
  3 P  1.88128850E+00  0.316424
  3 P  5.44249300E-01  0.744308

  4 S  1.68714400E-01  1.000000

  5 P  1.68714400E-01  1.000000

  O (Oxygen)
  ----------
            Exponent  Coefficients 
       -------------- ---------------------------------------------------------
  1 S  5.48467170E+03  0.001831
  1 S  8.25234950E+02  0.013950
  1 S  1.88046960E+02  0.068445
  1 S  5.29645000E+01  0.232714
  1 S  1.68975700E+01  0.470193
  1 S  5.79963530E+00  0.358521

  2 S  1.55396160E+01 -0.110778
  2 S  3.59993360E+00 -0.148026
  2 S  1.01376180E+00  1.130767

  3 P  1.55396160E+01  0.070874
  3 P  3.59993360E+00  0.339753
  3 P  1.01376180E+00  0.727159

  4 S  2.70005800E-01  1.000000

  5 P  2.70005800E-01  1.000000



 Summary of "ao basis" -> "noqsl" (cartesian)
 ------------------------------------------------------------------------------
       Tag                 Description            Shells   Functions and Types
 ---------------- ------------------------------  ------  ---------------------
 H                           6-31g                   2        2   2s
 C                           6-31g                   5        9   3s2p
 O                           6-31g                   5        9   3s2p


                              NWChem Gradients Module
                              -----------------------



  wavefunction    =   RHF     

 HVD: basin  =                   567
 HVD: basin2 =                   566


                         RHF ENERGY GRADIENTS

    atom               coordinates                        gradient
                 x          y          z           x          y          z
   1 H       2.006967   2.018452   0.153309    0.042471   0.029069   0.014768
   2 H      -1.797200   2.693211   0.161056   -0.034151   0.067382   0.013931
   3 C       0.015338   0.742119  -0.062722   -0.054638  -0.767682  -0.016710
   4 O      -0.037724  -1.145547   0.007746    0.046317   0.671232  -0.011989

                 ----------------------------------------
                 |  Time  |  1-e(secs)   |  2-e(secs)   |
                 ----------------------------------------
                 |  CPU   |       0.00   |       0.30   |
                 ----------------------------------------
                 |  WALL  |       0.00   |       0.33   |
                 ----------------------------------------
  no constraints, skipping    0.0000000000000000     

@ Step       Energy      Delta E   Gmax     Grms     Xrms     Xmax   Walltime
@ ---- ---------------- -------- -------- -------- -------- -------- --------
@    0    -113.64739890  0.0D+00  0.67225  0.19592  0.00000  0.00000      1.1
                                                                    



                                Z-matrix (autoz)
                                -------- 

 Units are Angstrom for bonds and degrees for angles

      Type          Name      I     J     K     L     M      Value     Gradient
      ----------- --------  ----- ----- ----- ----- ----- ---------- ----------
    1 Stretch                  1     3                       1.25698    0.05257
    2 Stretch                  2     3                       1.41421    0.07352
    3 Stretch                  3     4                       1.00000   -0.67225
    4 Bend                     1     3     2                99.71592   -0.00986
    5 Bend                     1     3     4               123.84100   -0.00776
    6 Bend                     2     3     4               135.00000    0.01746
    7 Torsion                  1     3     2     4        -165.98710    0.00338
    8 Torsion                  1     3     4     2         163.30076   -0.00300
    9 Torsion                  2     3     1     4         168.10362    0.00192
   10 Torsion                  1     4     3     2        -163.30076    0.00300
   11 Torsion                  1     2     3     4         165.98710   -0.00338
   12 Torsion                  2     1     3     4        -168.10362   -0.00192

 Restricting large step in mode    3 eval= 5.6D-02 step=-3.0D-01 new=-3.0D-01
 Restricting large step in mode    4 eval= 1.8D-01 step=-4.0D-01 new=-3.0D-01
 Restricting large step in mode    6 eval= 8.3D-01 step= 8.1D-01 new= 3.0D-01
 Restricting overall step due to large component. alpha=  0.92
  no constraints, skipping    0.0000000000000000     
  no constraints, skipping    0.0000000000000000     
  no constraints, skipping    0.0000000000000000     
  no constraints, skipping    0.0000000000000000     
  no constraints, skipping    0.0000000000000000     
  no constraints, skipping    0.0000000000000000     
  no constraints, skipping    0.0000000000000000     
  no constraints, skipping    0.0000000000000000     
                                 NWChem SCF Module
                                 -----------------



  ao basis        = "qsl"
  functions       =    22
  atoms           =     4
  closed shells   =     8
  open shells     =     0
  charge          =   0.00
  wavefunction    = RHF 
  input vectors   = ./h2co_dat.movecs
  output vectors  = ./h2co_dat.movecs
  use symmetry    = F
  symmetry adapt  = F


 Summary of "ao basis" -> "qsl" (cartesian)
 ------------------------------------------------------------------------------
       Tag                 Description            Shells   Functions and Types
 ---------------- ------------------------------  ------  ---------------------
 H                           6-31g                   2        2   2s
 C                           6-31g                   3        9   3s2p
 O                           6-31g                   3        9   3s2p



 Forming initial guess at       1.1s


 Loading old vectors from job with title :




 Starting SCF solution at       1.1s



 ----------------------------------------------
         Quadratically convergent ROHF

 Convergence threshold     :          1.000E-04
 Maximum no. of iterations :           30
 Final Fock-matrix accuracy:          1.000E-07
 ----------------------------------------------


              iter       energy          gnorm     gmax       time
             ----- ------------------- --------- --------- --------
                 1     -113.7361954086  7.04D-01  2.53D-01      1.0
                 2     -113.7745005706  2.42D-01  9.58D-02      1.0
                 3     -113.7794381041  2.04D-02  7.64D-03      1.1
                 4     -113.7794921999  2.67D-04  9.44D-05      1.4
                 5     -113.7794922096  9.30D-06  4.61D-06      1.5


       Final RHF  results 
       ------------------ 

         Total SCF energy =   -113.779492209605
      One-electron energy =   -217.676475424771
      Two-electron energy =     72.175399422201
 Nuclear repulsion energy =     31.721583792965

        Time for solution =      0.6s


             Final eigenvalues
             -----------------

              1      
    1  -20.6077
    2  -11.3768
    3   -1.4863
    4   -0.8424
    5   -0.6931
    6   -0.6674
    7   -0.5727
    8   -0.4166
    9    0.1352
   10    0.2112
   11    0.3114
   12    0.3706
   13    0.7191
   14    0.8119
   15    0.9487
   16    1.0170
   17    1.0451
   18    1.0894

                       ROHF Final Molecular Orbital Analysis
                       -------------------------------------

 Vector    2  Occ=2.000000D+00  E=-1.137675D+01
   Bfn.  Coefficient  Atom+Function         Bfn.  Coefficient  Atom+Function  
  ----- ------------  ---------------      ----- ------------  ---------------
     5      0.996159  3 C  s          

 Vector    3  Occ=2.000000D+00  E=-1.486287D+00
   Bfn.  Coefficient  Atom+Function         Bfn.  Coefficient  Atom+Function  
  ----- ------------  ---------------      ----- ------------  ---------------
    15      0.439397  4 O  ls                19      0.394749  4 O  ls         
     6      0.237274  3 C  ls                 8     -0.210089  3 C  ly         
    14     -0.197360  4 O  s                 17      0.181251  4 O  ly         

 Vector    4  Occ=2.000000D+00  E=-8.423636D-01
   Bfn.  Coefficient  Atom+Function         Bfn.  Coefficient  Atom+Function  
  ----- ------------  ---------------      ----- ------------  ---------------
     6      0.348468  3 C  ls                10      0.346898  3 C  ls         
    19     -0.301940  4 O  ls                15     -0.204869  4 O  ls         
     1      0.191610  1 H  s                 17      0.168263  4 O  ly         
     5     -0.158591  3 C  s                  8      0.156679  3 C  ly         

 Vector    5  Occ=2.000000D+00  E=-6.930943D-01
   Bfn.  Coefficient  Atom+Function         Bfn.  Coefficient  Atom+Function  
  ----- ------------  ---------------      ----- ------------  ---------------
    16      0.387690  4 O  lx                 7      0.377038  3 C  lx         
    20      0.215248  4 O  lx                17     -0.206068  4 O  ly         
    11      0.164195  3 C  lx         

 Vector    6  Occ=2.000000D+00  E=-6.673503D-01
   Bfn.  Coefficient  Atom+Function         Bfn.  Coefficient  Atom+Function  
  ----- ------------  ---------------      ----- ------------  ---------------
    17      0.458576  4 O  ly                 8     -0.389579  3 C  ly         
    19     -0.302893  4 O  ls                21      0.224450  4 O  ly         
    16      0.191731  4 O  lx                15     -0.150166  4 O  ls         

 Vector    7  Occ=2.000000D+00  E=-5.727135D-01
   Bfn.  Coefficient  Atom+Function         Bfn.  Coefficient  Atom+Function  
  ----- ------------  ---------------      ----- ------------  ---------------
    18      0.496656  4 O  lz                 9      0.352927  3 C  lz         
    22      0.343141  4 O  lz                13      0.191154  3 C  lz         

 Vector    8  Occ=2.000000D+00  E=-4.165984D-01
   Bfn.  Coefficient  Atom+Function         Bfn.  Coefficient  Atom+Function  
  ----- ------------  ---------------      ----- ------------  ---------------
    16      0.482446  4 O  lx                20      0.408299  4 O  lx         
     4      0.307535  2 H  s                  2     -0.274005  1 H  s          
     3      0.227182  2 H  s                  7     -0.223647  3 C  lx         
     1     -0.215180  1 H  s          

 Vector    9  Occ=0.000000D+00  E= 1.351748D-01
   Bfn.  Coefficient  Atom+Function         Bfn.  Coefficient  Atom+Function  
  ----- ------------  ---------------      ----- ------------  ---------------
    13      0.702528  3 C  lz                22     -0.551579  4 O  lz         
     9      0.397259  3 C  lz                18     -0.386399  4 O  lz         
    10     -0.330700  3 C  ls                 4      0.210044  2 H  s          
     2      0.205657  1 H  s          

 Vector   10  Occ=0.000000D+00  E= 2.112299D-01
   Bfn.  Coefficient  Atom+Function         Bfn.  Coefficient  Atom+Function  
  ----- ------------  ---------------      ----- ------------  ---------------
    10      1.656413  3 C  ls                 4     -1.269630  2 H  s          
     2     -1.171218  1 H  s                 12      0.597717  3 C  ly         
    13      0.261810  3 C  lz                 8      0.232390  3 C  ly         

 Vector   11  Occ=0.000000D+00  E= 3.114393D-01
   Bfn.  Coefficient  Atom+Function         Bfn.  Coefficient  Atom+Function  
  ----- ------------  ---------------      ----- ------------  ---------------
     2      1.668641  1 H  s                 11     -1.328234  3 C  lx         
     4     -1.151359  2 H  s                  7     -0.483192  3 C  lx         
    20      0.453742  4 O  lx                10     -0.418583  3 C  ls         
    16      0.191194  4 O  lx         

 Vector   12  Occ=0.000000D+00  E= 3.705935D-01
   Bfn.  Coefficient  Atom+Function         Bfn.  Coefficient  Atom+Function  
  ----- ------------  ---------------      ----- ------------  ---------------
    19      2.228734  4 O  ls                12      2.126639  3 C  ly         
    10     -1.641742  3 C  ls                21      0.808060  4 O  ly         
     2     -0.401307  1 H  s                 11      0.277349  3 C  lx         
     4     -0.273892  2 H  s          

 Vector   13  Occ=0.000000D+00  E= 7.191272D-01
   Bfn.  Coefficient  Atom+Function         Bfn.  Coefficient  Atom+Function  
  ----- ------------  ---------------      ----- ------------  ---------------
    13     -1.107949  3 C  lz                 9      1.086737  3 C  lz         

 Vector   14  Occ=0.000000D+00  E= 8.119271D-01
   Bfn.  Coefficient  Atom+Function         Bfn.  Coefficient  Atom+Function  
  ----- ------------  ---------------      ----- ------------  ---------------
    11      1.988717  3 C  lx                 7     -0.866275  3 C  lx         
     2     -0.773162  1 H  s                  4      0.560136  2 H  s          
     1     -0.375630  1 H  s                 10      0.365918  3 C  ls         
    16     -0.277191  4 O  lx                20     -0.189304  4 O  lx         
     3      0.182876  2 H  s          

 Vector   15  Occ=0.000000D+00  E= 9.486559D-01
   Bfn.  Coefficient  Atom+Function         Bfn.  Coefficient  Atom+Function  
  ----- ------------  ---------------      ----- ------------  ---------------
    10      2.192541  3 C  ls                12      1.202576  3 C  ly         
     6     -0.974236  3 C  ls                 8     -0.664496  3 C  ly         
     1     -0.631669  1 H  s                  4     -0.550113  2 H  s          
     3     -0.506887  2 H  s                 21     -0.366253  4 O  ly         
     2     -0.355517  1 H  s                 15     -0.198373  4 O  ls         

 Vector   16  Occ=0.000000D+00  E= 1.016974D+00
   Bfn.  Coefficient  Atom+Function         Bfn.  Coefficient  Atom+Function  
  ----- ------------  ---------------      ----- ------------  ---------------
     4      1.357734  2 H  s                 10     -1.203017  3 C  ls         
     3     -1.034987  2 H  s                 21      0.877230  4 O  ly         
     8      0.722835  3 C  ly                19      0.597639  4 O  ls         
    11      0.410169  3 C  lx                12     -0.242106  3 C  ly         
     7     -0.203939  3 C  lx         

 Vector   17  Occ=0.000000D+00  E= 1.045059D+00
   Bfn.  Coefficient  Atom+Function         Bfn.  Coefficient  Atom+Function  
  ----- ------------  ---------------      ----- ------------  ---------------
     6      1.360000  3 C  ls                21     -1.003121  4 O  ly         
     4      0.903904  2 H  s                 10     -0.705174  3 C  ls         
     8     -0.648658  3 C  ly                 3     -0.498895  2 H  s          
    11      0.415474  3 C  lx                 7     -0.381148  3 C  lx         
    19     -0.361704  4 O  ls                 1      0.329449  1 H  s          

 Vector   18  Occ=0.000000D+00  E= 1.089368D+00
   Bfn.  Coefficient  Atom+Function         Bfn.  Coefficient  Atom+Function  
  ----- ------------  ---------------      ----- ------------  ---------------
    10      2.009103  3 C  ls                 2     -1.769930  1 H  s          
     6     -1.196745  3 C  ls                 1      0.987532  1 H  s          
    11      0.707940  3 C  lx                 7     -0.473652  3 C  lx         
    12      0.319800  3 C  ly                20     -0.214106  4 O  lx         
    19     -0.210514  4 O  ls                16      0.200297  4 O  lx         


 center of mass
 --------------
 x =  -0.04079712 y =  -0.12623328 z =  -0.00381450

 moments of inertia (a.u.)
 ------------------
          44.635553472112          -3.542883868576           0.043145135831
          -3.542883868576           7.119454040405           0.006288660060
           0.043145135831           0.006288660060          51.613929583359

  Mulliken analysis of the total density
  --------------------------------------

    Atom       Charge   Shell Charges
 -----------   ------   -------------------------------------------------------
    1 H    1     0.86   0.52  0.34
    2 H    1     0.90   0.48  0.42
    3 C    6     5.85   2.00  2.63  1.22
    4 O    8     8.39   2.00  3.80  2.60
 Line search: 
     step= 0.92 grad=-2.4D-01 hess= 1.1D-01 energy=   -113.779492 mode=downhill
 new step= 1.12                   predicted energy=   -113.783842
  no constraints, skipping    0.0000000000000000     
  no constraints, skipping    0.0000000000000000     
  no constraints, skipping    0.0000000000000000     
  no constraints, skipping    0.0000000000000000     
  no constraints, skipping    0.0000000000000000     
  no constraints, skipping    0.0000000000000000     
  no constraints, skipping    0.0000000000000000     
  no constraints, skipping    0.0000000000000000     

          --------
          Step   1
          --------


                         Geometry "geometry" -> "geometry"
                         ---------------------------------

 Output coordinates in angstroms (scale by  1.889725989 to convert to a.u.)

  No.       Tag          Charge          X              Y              Z
 ---- ---------------- ---------- -------------- -------------- --------------
    1 H                    1.0000     1.01689314     1.09763901     0.07610701
    2 H                    1.0000    -0.87316839     1.32645180     0.07864207
    3 C                    6.0000     0.05220289     0.51150122    -0.02203871
    4 O                    8.0000    -0.09677041    -0.65577258     0.00455251

      Atomic Mass 
      ----------- 

      H                  1.007825
      C                 12.000000
      O                 15.994910


 Effective nuclear repulsion energy (a.u.)      31.2507331461

            Nuclear Dipole moment (a.u.) 
            ----------------------------
        X                 Y               Z
 ---------------- ---------------- ----------------
    -0.5994610659     0.4666064564     0.1113745857

                                 NWChem SCF Module
                                 -----------------



  ao basis        = "qsl"
  functions       =    22
  atoms           =     4
  closed shells   =     8
  open shells     =     0
  charge          =   0.00
  wavefunction    = RHF 
  input vectors   = ./h2co_dat.movecs
  output vectors  = ./h2co_dat.movecs
  use symmetry    = F
  symmetry adapt  = F


 Summary of "ao basis" -> "qsl" (cartesian)
 ------------------------------------------------------------------------------
       Tag                 Description            Shells   Functions and Types
 ---------------- ------------------------------  ------  ---------------------
 H                           6-31g                   2        2   2s
 C                           6-31g                   3        9   3s2p
 O                           6-31g                   3        9   3s2p



 Forming initial guess at       1.8s


 Loading old vectors from job with title :




 Starting SCF solution at       1.8s



 ----------------------------------------------
         Quadratically convergent ROHF

 Convergence threshold     :          1.000E-04
 Maximum no. of iterations :           30
 Final Fock-matrix accuracy:          1.000E-07
 ----------------------------------------------


              iter       energy          gnorm     gmax       time
             ----- ------------------- --------- --------- --------
                 1     -113.7884097406  1.35D-01  4.82D-02      1.6
                 2     -113.7900344905  9.49D-03  3.92D-03      1.7
                 3     -113.7900460992  3.14D-05  1.08D-05      1.9


       Final RHF  results 
       ------------------ 

         Total SCF energy =   -113.790046099242
      One-electron energy =   -216.845772210433
      Two-electron energy =     71.804992965055
 Nuclear repulsion energy =     31.250733146135

        Time for solution =      0.4s


             Final eigenvalues
             -----------------

              1      
    1  -20.6054
    2  -11.3732
    3   -1.4591
    4   -0.8537
    5   -0.6874
    6   -0.6585
    7   -0.5551
    8   -0.4254
    9    0.1273
   10    0.2173
   11    0.3106
   12    0.3696
   13    0.7239
   14    0.8123
   15    0.9300
   16    1.0087
   17    1.0411
   18    1.1011

                       ROHF Final Molecular Orbital Analysis
                       -------------------------------------

 Vector    2  Occ=2.000000D+00  E=-1.137323D+01
   Bfn.  Coefficient  Atom+Function         Bfn.  Coefficient  Atom+Function  
  ----- ------------  ---------------      ----- ------------  ---------------
     5      0.996170  3 C  s          

 Vector    3  Occ=2.000000D+00  E=-1.459092D+00
   Bfn.  Coefficient  Atom+Function         Bfn.  Coefficient  Atom+Function  
  ----- ------------  ---------------      ----- ------------  ---------------
    15      0.440141  4 O  ls                19      0.411659  4 O  ls         
     6      0.231225  3 C  ls                 8     -0.198410  3 C  ly         
    14     -0.197651  4 O  s                 17      0.170904  4 O  ly         

 Vector    4  Occ=2.000000D+00  E=-8.536808D-01
   Bfn.  Coefficient  Atom+Function         Bfn.  Coefficient  Atom+Function  
  ----- ------------  ---------------      ----- ------------  ---------------
     6      0.350896  3 C  ls                10      0.344017  3 C  ls         
    19     -0.287989  4 O  ls                15     -0.201251  4 O  ls         
     1      0.196587  1 H  s                  8      0.164949  3 C  ly         
     5     -0.160245  3 C  s                 17      0.150576  4 O  ly         

 Vector    5  Occ=2.000000D+00  E=-6.874258D-01
   Bfn.  Coefficient  Atom+Function         Bfn.  Coefficient  Atom+Function  
  ----- ------------  ---------------      ----- ------------  ---------------
     7      0.385940  3 C  lx                16      0.369876  4 O  lx         
    20      0.205080  4 O  lx                17     -0.192984  4 O  ly         
    11      0.171963  3 C  lx                 1      0.157173  1 H  s          

 Vector    6  Occ=2.000000D+00  E=-6.585161D-01
   Bfn.  Coefficient  Atom+Function         Bfn.  Coefficient  Atom+Function  
  ----- ------------  ---------------      ----- ------------  ---------------
    17      0.463985  4 O  ly                 8     -0.389327  3 C  ly         
    19     -0.302637  4 O  ls                21      0.236881  4 O  ly         
    16      0.184058  4 O  lx                15     -0.156520  4 O  ls         

 Vector    7  Occ=2.000000D+00  E=-5.551098D-01
   Bfn.  Coefficient  Atom+Function         Bfn.  Coefficient  Atom+Function  
  ----- ------------  ---------------      ----- ------------  ---------------
    18      0.493734  4 O  lz                 9      0.346896  3 C  lz         
    22      0.347509  4 O  lz                13      0.203216  3 C  lz         

 Vector    8  Occ=2.000000D+00  E=-4.253942D-01
   Bfn.  Coefficient  Atom+Function         Bfn.  Coefficient  Atom+Function  
  ----- ------------  ---------------      ----- ------------  ---------------
    16      0.501300  4 O  lx                20      0.414512  4 O  lx         
     4      0.291151  2 H  s                  2     -0.261750  1 H  s          
     3      0.222428  2 H  s                  7     -0.223218  3 C  lx         
     1     -0.207962  1 H  s          

 Vector    9  Occ=0.000000D+00  E= 1.273178D-01
   Bfn.  Coefficient  Atom+Function         Bfn.  Coefficient  Atom+Function  
  ----- ------------  ---------------      ----- ------------  ---------------
    13      0.692837  3 C  lz                22     -0.543059  4 O  lz         
     9      0.404435  3 C  lz                18     -0.389488  4 O  lz         
    10     -0.267928  3 C  ls                 2      0.163688  1 H  s          
     4      0.160719  2 H  s          

 Vector   10  Occ=0.000000D+00  E= 2.172836D-01
   Bfn.  Coefficient  Atom+Function         Bfn.  Coefficient  Atom+Function  
  ----- ------------  ---------------      ----- ------------  ---------------
    10      1.739428  3 C  ls                 4     -1.322566  2 H  s          
     2     -1.235538  1 H  s                 12      0.631421  3 C  ly         
     8      0.226348  3 C  ly                13      0.227106  3 C  lz         

 Vector   11  Occ=0.000000D+00  E= 3.106442D-01
   Bfn.  Coefficient  Atom+Function         Bfn.  Coefficient  Atom+Function  
  ----- ------------  ---------------      ----- ------------  ---------------
     2      1.682441  1 H  s                 11     -1.329409  3 C  lx         
     4     -1.236320  2 H  s                 10     -0.478961  3 C  ls         
     7     -0.471244  3 C  lx                20      0.430868  4 O  lx         
    16      0.179404  4 O  lx                12      0.167328  3 C  ly         

 Vector   12  Occ=0.000000D+00  E= 3.695844D-01
   Bfn.  Coefficient  Atom+Function         Bfn.  Coefficient  Atom+Function  
  ----- ------------  ---------------      ----- ------------  ---------------
    19      2.133904  4 O  ls                12      2.078689  3 C  ly         
    10     -1.536745  3 C  ls                21      0.833360  4 O  ly         
     2     -0.536114  1 H  s                 11      0.399206  3 C  lx         

 Vector   13  Occ=0.000000D+00  E= 7.239346D-01
   Bfn.  Coefficient  Atom+Function         Bfn.  Coefficient  Atom+Function  
  ----- ------------  ---------------      ----- ------------  ---------------
    13     -1.114458  3 C  lz                 9      1.088244  3 C  lz         

 Vector   14  Occ=0.000000D+00  E= 8.123060D-01
   Bfn.  Coefficient  Atom+Function         Bfn.  Coefficient  Atom+Function  
  ----- ------------  ---------------      ----- ------------  ---------------
    11      2.010993  3 C  lx                 7     -0.833108  3 C  lx         
     2     -0.796275  1 H  s                  4      0.539173  2 H  s          
     1     -0.416840  1 H  s                 10      0.396255  3 C  ls         
    16     -0.286362  4 O  lx                 3      0.207804  2 H  s          
    20     -0.194064  4 O  lx         

 Vector   15  Occ=0.000000D+00  E= 9.299869D-01
   Bfn.  Coefficient  Atom+Function         Bfn.  Coefficient  Atom+Function  
  ----- ------------  ---------------      ----- ------------  ---------------
    10      2.087986  3 C  ls                12      1.201312  3 C  ly         
     6     -0.822274  3 C  ls                 8     -0.721442  3 C  ly         
     1     -0.599108  1 H  s                  3     -0.545626  2 H  s          
     4     -0.524286  2 H  s                 21     -0.391936  4 O  ly         
     2     -0.336004  1 H  s                 15     -0.221000  4 O  ls         

 Vector   16  Occ=0.000000D+00  E= 1.008692D+00
   Bfn.  Coefficient  Atom+Function         Bfn.  Coefficient  Atom+Function  
  ----- ------------  ---------------      ----- ------------  ---------------
     6      1.136645  3 C  ls                21     -1.025746  4 O  ly         
     8     -0.944400  3 C  ly                 3      0.546869  2 H  s          
    19     -0.465528  4 O  ls                 4     -0.422129  2 H  s          
    10     -0.241785  3 C  ls                 1      0.170255  1 H  s          
    11     -0.170825  3 C  lx                15     -0.153672  4 O  ls         

 Vector   17  Occ=0.000000D+00  E= 1.041112D+00
   Bfn.  Coefficient  Atom+Function         Bfn.  Coefficient  Atom+Function  
  ----- ------------  ---------------      ----- ------------  ---------------
     4      1.634311  2 H  s                 10     -1.612190  3 C  ls         
     6      1.107027  3 C  ls                 3     -0.993721  2 H  s          
    11      0.639813  3 C  lx                 7     -0.465526  3 C  lx         
    12     -0.297419  3 C  ly                20     -0.215474  4 O  lx         
     1      0.180781  1 H  s                 17     -0.171552  4 O  ly         

 Vector   18  Occ=0.000000D+00  E= 1.101086D+00
   Bfn.  Coefficient  Atom+Function         Bfn.  Coefficient  Atom+Function  
  ----- ------------  ---------------      ----- ------------  ---------------
    10      2.063674  3 C  ls                 2     -1.806114  1 H  s          
     1      1.009191  1 H  s                  6     -0.969715  3 C  ls         
    11      0.754099  3 C  lx                 7     -0.526684  3 C  lx         
    21     -0.386518  4 O  ly                12      0.323076  3 C  ly         
     8     -0.311151  3 C  ly                19     -0.304939  4 O  ls         


 center of mass
 --------------
 x =  -0.04889834 y =  -0.12014109 z =  -0.00224720

 moments of inertia (a.u.)
 ------------------
          46.075248539133          -4.441390393794           0.046361700642
          -4.441390393794           7.110462850982          -0.014386703179
           0.046361700642          -0.014386703179          53.055809703752

  Mulliken analysis of the total density
  --------------------------------------

    Atom       Charge   Shell Charges
 -----------   ------   -------------------------------------------------------
    1 H    1     0.85   0.53  0.32
    2 H    1     0.89   0.49  0.40
    3 C    6     5.84   2.00  2.62  1.22
    4 O    8     8.42   2.00  3.77  2.66
                              NWChem Gradients Module
                              -----------------------



  wavefunction    =   RHF     

 HVD: basin  =                   567
 HVD: basin2 =                   566


                         RHF ENERGY GRADIENTS

    atom               coordinates                        gradient
                 x          y          z           x          y          z
   1 H       1.921649   2.074237   0.143821    0.016518   0.027775   0.011507
   2 H      -1.650049   2.506630   0.148612   -0.041660   0.049162   0.013524
   3 C       0.098649   0.966597  -0.041647    0.024354  -0.120507  -0.032680
   4 O      -0.182870  -1.239230   0.008603    0.000788   0.043569   0.007649

                 ----------------------------------------
                 |  Time  |  1-e(secs)   |  2-e(secs)   |
                 ----------------------------------------
                 |  CPU   |       0.00   |       0.29   |
                 ----------------------------------------
                 |  WALL  |       0.00   |       0.32   |
                 ----------------------------------------
  no constraints, skipping    0.0000000000000000     

  Step       Energy      Delta E   Gmax     Grms     Xrms     Xmax   Walltime
  ---- ---------------- -------- -------- -------- -------- -------- --------
@    1    -113.79004610 -1.4D-01  0.06465  0.02427  0.11662  0.21928      2.5
                                                                    



                                Z-matrix (autoz)
                                -------- 

 Units are Angstrom for bonds and degrees for angles

      Type          Name      I     J     K     L     M      Value     Gradient
      ----------- --------  ----- ----- ----- ----- ----- ---------- ----------
    1 Stretch                  1     3                       1.13306    0.02943
    2 Stretch                  2     3                       1.23717    0.06465
    3 Stretch                  3     4                       1.17704   -0.04313
    4 Bend                     1     3     2               106.79921   -0.00943
    5 Bend                     1     3     4               128.22968    0.00719
    6 Bend                     2     3     4               123.83118    0.00202
    7 Torsion                  1     3     2     4        -168.66717    0.00034
    8 Torsion                  1     3     4     2         166.14404   -0.00252
    9 Torsion                  2     3     1     4         168.00646   -0.00127
   10 Torsion                  1     4     3     2        -166.14404    0.00252
   11 Torsion                  1     2     3     4         168.66717   -0.00034
   12 Torsion                  2     1     3     4        -168.00646    0.00127

 Restricting large step in mode    2 eval= 4.5D-02 step=-3.9D-01 new=-3.0D-01
 Restricting large step in mode    4 eval= 1.4D-01 step=-4.9D-01 new=-3.0D-01
 Restricting overall step due to large component. alpha=  0.99
  no constraints, skipping    0.0000000000000000     
  no constraints, skipping    0.0000000000000000     
  no constraints, skipping    0.0000000000000000     
  no constraints, skipping    0.0000000000000000     
  no constraints, skipping    0.0000000000000000     
  no constraints, skipping    0.0000000000000000     
  no constraints, skipping    0.0000000000000000     
  no constraints, skipping    0.0000000000000000     
                                 NWChem SCF Module
                                 -----------------



  ao basis        = "qsl"
  functions       =    22
  atoms           =     4
  closed shells   =     8
  open shells     =     0
  charge          =   0.00
  wavefunction    = RHF 
  input vectors   = ./h2co_dat.movecs
  output vectors  = ./h2co_dat.movecs
  use symmetry    = F
  symmetry adapt  = F


 Summary of "ao basis" -> "qsl" (cartesian)
 ------------------------------------------------------------------------------
       Tag                 Description            Shells   Functions and Types
 ---------------- ------------------------------  ------  ---------------------
 H                           6-31g                   2        2   2s
 C                           6-31g                   3        9   3s2p
 O                           6-31g                   3        9   3s2p



 Forming initial guess at       2.5s


 Loading old vectors from job with title :




 Starting SCF solution at       2.5s



 ----------------------------------------------
         Quadratically convergent ROHF

 Convergence threshold     :          1.000E-04
 Maximum no. of iterations :           30
 Final Fock-matrix accuracy:          1.000E-07
 ----------------------------------------------


              iter       energy          gnorm     gmax       time
             ----- ------------------- --------- --------- --------
                 1     -113.7978821695  2.84D-01  1.19D-01      2.3
                 2     -113.8049317316  1.26D-01  4.89D-02      2.3
                 3     -113.8060141214  6.86D-03  3.19D-03      2.5
                 4     -113.8060204098  3.80D-05  2.49D-05      2.7


       Final RHF  results 
       ------------------ 

         Total SCF energy =   -113.806020409812
      One-electron energy =   -217.761775764317
      Two-electron energy =     72.288076747119
 Nuclear repulsion energy =     31.667678607386

        Time for solution =      0.5s


             Final eigenvalues
             -----------------

              1      
    1  -20.5935
    2  -11.3453
    3   -1.4336
    4   -0.8846
    5   -0.7107
    6   -0.6479
    7   -0.5358
    8   -0.4415
    9    0.1273
   10    0.2510
   11    0.3302
   12    0.3713
   13    0.7337
   14    0.8109
   15    0.8633
   16    0.9935
   17    1.1606
   18    1.1750

                       ROHF Final Molecular Orbital Analysis
                       -------------------------------------

 Vector    2  Occ=2.000000D+00  E=-1.134527D+01
   Bfn.  Coefficient  Atom+Function         Bfn.  Coefficient  Atom+Function  
  ----- ------------  ---------------      ----- ------------  ---------------
     5      0.996093  3 C  s          

 Vector    3  Occ=2.000000D+00  E=-1.433570D+00
   Bfn.  Coefficient  Atom+Function         Bfn.  Coefficient  Atom+Function  
  ----- ------------  ---------------      ----- ------------  ---------------
    15      0.438261  4 O  ls                19      0.419232  4 O  ls         
     6      0.230324  3 C  ls                14     -0.197078  4 O  s          
     8     -0.184789  3 C  ly                17      0.162999  4 O  ly         

 Vector    4  Occ=2.000000D+00  E=-8.845612D-01
   Bfn.  Coefficient  Atom+Function         Bfn.  Coefficient  Atom+Function  
  ----- ------------  ---------------      ----- ------------  ---------------
     6      0.354253  3 C  ls                10      0.315323  3 C  ls         
    19     -0.274946  4 O  ls                15     -0.200804  4 O  ls         
     1      0.197438  1 H  s                  8      0.193124  3 C  ly         
     3      0.180730  2 H  s                  5     -0.161802  3 C  s          

 Vector    5  Occ=2.000000D+00  E=-7.106935D-01
   Bfn.  Coefficient  Atom+Function         Bfn.  Coefficient  Atom+Function  
  ----- ------------  ---------------      ----- ------------  ---------------
     7      0.423448  3 C  lx                16      0.334471  4 O  lx         
     1      0.183498  1 H  s                  3     -0.183166  2 H  s          
    20      0.176889  4 O  lx                11      0.173347  3 C  lx         

 Vector    6  Occ=2.000000D+00  E=-6.479228D-01
   Bfn.  Coefficient  Atom+Function         Bfn.  Coefficient  Atom+Function  
  ----- ------------  ---------------      ----- ------------  ---------------
    17      0.504589  4 O  ly                 8     -0.386750  3 C  ly         
    19     -0.325716  4 O  ls                21      0.264826  4 O  ly         
    15     -0.169979  4 O  ls         

 Vector    7  Occ=2.000000D+00  E=-5.357726D-01
   Bfn.  Coefficient  Atom+Function         Bfn.  Coefficient  Atom+Function  
  ----- ------------  ---------------      ----- ------------  ---------------
    18      0.486469  4 O  lz                22      0.348035  4 O  lz         
     9      0.344864  3 C  lz                13      0.218958  3 C  lz         

 Vector    8  Occ=2.000000D+00  E=-4.414956D-01
   Bfn.  Coefficient  Atom+Function         Bfn.  Coefficient  Atom+Function  
  ----- ------------  ---------------      ----- ------------  ---------------
    16      0.555955  4 O  lx                20      0.438643  4 O  lx         
     4      0.247585  2 H  s                  2     -0.243713  1 H  s          
     7     -0.211915  3 C  lx                 3      0.207205  2 H  s          
     1     -0.199293  1 H  s          

 Vector    9  Occ=0.000000D+00  E= 1.272691D-01
   Bfn.  Coefficient  Atom+Function         Bfn.  Coefficient  Atom+Function  
  ----- ------------  ---------------      ----- ------------  ---------------
    13      0.697686  3 C  lz                22     -0.547314  4 O  lz         
     9      0.405588  3 C  lz                18     -0.394874  4 O  lz         
    10     -0.151624  3 C  ls         

 Vector   10  Occ=0.000000D+00  E= 2.509958D-01
   Bfn.  Coefficient  Atom+Function         Bfn.  Coefficient  Atom+Function  
  ----- ------------  ---------------      ----- ------------  ---------------
    10      2.099774  3 C  ls                 2     -1.541129  1 H  s          
     4     -1.534319  2 H  s                 12      0.775265  3 C  ly         
     8      0.206355  3 C  ly                13      0.163995  3 C  lz         

 Vector   11  Occ=0.000000D+00  E= 3.302137D-01
   Bfn.  Coefficient  Atom+Function         Bfn.  Coefficient  Atom+Function  
  ----- ------------  ---------------      ----- ------------  ---------------
     2      1.829058  1 H  s                  4     -1.769726  2 H  s          
    11     -1.539509  3 C  lx                 7     -0.433330  3 C  lx         
    20      0.411297  4 O  lx                12      0.372045  3 C  ly         
    10     -0.275782  3 C  ls                19      0.230589  4 O  ls         

 Vector   12  Occ=0.000000D+00  E= 3.712864D-01
   Bfn.  Coefficient  Atom+Function         Bfn.  Coefficient  Atom+Function  
  ----- ------------  ---------------      ----- ------------  ---------------
    19      2.036179  4 O  ls                12      1.943371  3 C  ly         
    10     -1.615432  3 C  ls                21      0.846835  4 O  ly         
    11      0.501626  3 C  lx                 2     -0.489918  1 H  s          
     4      0.164955  2 H  s                 17      0.160888  4 O  ly         

 Vector   13  Occ=0.000000D+00  E= 7.336596D-01
   Bfn.  Coefficient  Atom+Function         Bfn.  Coefficient  Atom+Function  
  ----- ------------  ---------------      ----- ------------  ---------------
    13     -1.117082  3 C  lz                 9      1.091161  3 C  lz         

 Vector   14  Occ=0.000000D+00  E= 8.108921D-01
   Bfn.  Coefficient  Atom+Function         Bfn.  Coefficient  Atom+Function  
  ----- ------------  ---------------      ----- ------------  ---------------
    11      2.351275  3 C  lx                 2     -1.040720  1 H  s          
     4      0.872382  2 H  s                  7     -0.741536  3 C  lx         
     1     -0.418172  1 H  s                 16     -0.309234  4 O  lx         
     3      0.303197  2 H  s                 20     -0.262149  4 O  lx         
    10      0.219700  3 C  ls         

 Vector   15  Occ=0.000000D+00  E= 8.633331D-01
   Bfn.  Coefficient  Atom+Function         Bfn.  Coefficient  Atom+Function  
  ----- ------------  ---------------      ----- ------------  ---------------
    10      2.625227  3 C  ls                12      1.029726  3 C  ly         
     6     -0.913011  3 C  ls                 4     -0.676187  2 H  s          
     3     -0.603668  2 H  s                  8     -0.572001  3 C  ly         
     1     -0.564187  1 H  s                  2     -0.478812  1 H  s          
    21     -0.402499  4 O  ly                15     -0.213430  4 O  ls         

 Vector   16  Occ=0.000000D+00  E= 9.935000D-01
   Bfn.  Coefficient  Atom+Function         Bfn.  Coefficient  Atom+Function  
  ----- ------------  ---------------      ----- ------------  ---------------
     6      1.261999  3 C  ls                 8     -1.002736  3 C  ly         
    21     -0.842022  4 O  ly                10     -0.753499  3 C  ls         
    12      0.236883  3 C  ly                 3      0.234186  2 H  s          
    17     -0.219548  4 O  ly                19     -0.218793  4 O  ls         
    15     -0.168714  4 O  ls                 2      0.158138  1 H  s          

 Vector   17  Occ=0.000000D+00  E= 1.160612D+00
   Bfn.  Coefficient  Atom+Function         Bfn.  Coefficient  Atom+Function  
  ----- ------------  ---------------      ----- ------------  ---------------
     4      1.741623  2 H  s                 11      1.149401  3 C  lx         
     3     -1.019495  2 H  s                 10     -0.967037  3 C  ls         
     7     -0.791827  3 C  lx                 2     -0.780486  1 H  s          
     6      0.536788  3 C  ls                 1      0.466263  1 H  s          
    20     -0.356648  4 O  lx                12     -0.282235  3 C  ly         

 Vector   18  Occ=0.000000D+00  E= 1.175040D+00
   Bfn.  Coefficient  Atom+Function         Bfn.  Coefficient  Atom+Function  
  ----- ------------  ---------------      ----- ------------  ---------------
    10      2.453920  3 C  ls                 2     -1.612765  1 H  s          
     6     -1.092304  3 C  ls                 1      0.889839  1 H  s          
    21     -0.631955  4 O  ly                 4     -0.612925  2 H  s          
    11      0.492273  3 C  lx                17      0.428700  4 O  ly         
    19     -0.357409  4 O  ls                 7     -0.355326  3 C  lx         


 center of mass
 --------------
 x =  -0.07133816 y =  -0.02814430 z =   0.00793601

 moments of inertia (a.u.)
 ------------------
          45.260638646531          -5.165157166023          -0.018692481301
          -5.165157166023           6.504924479934          -0.262683455967
          -0.018692481301          -0.262683455967          51.692475268143

  Mulliken analysis of the total density
  --------------------------------------

    Atom       Charge   Shell Charges
 -----------   ------   -------------------------------------------------------
    1 H    1     0.85   0.56  0.29
    2 H    1     0.86   0.56  0.30
    3 C    6     5.84   2.00  2.71  1.13
    4 O    8     8.45   2.00  3.75  2.70
 Line search: 
     step= 0.99 grad=-3.0D-02 hess= 1.4D-02 energy=   -113.806020 mode=accept  
 new step= 0.99                   predicted energy=   -113.806020
  no constraints, skipping    0.0000000000000000     
  no constraints, skipping    0.0000000000000000     
  no constraints, skipping    0.0000000000000000     
  no constraints, skipping    0.0000000000000000     
  no constraints, skipping    0.0000000000000000     
  no constraints, skipping    0.0000000000000000     
  no constraints, skipping    0.0000000000000000     
  no constraints, skipping    0.0000000000000000     

          --------
          Step   2
          --------


                         Geometry "geometry" -> "geometry"
                         ---------------------------------

 Output coordinates in angstroms (scale by  1.889725989 to convert to a.u.)

  No.       Tag          Charge          X              Y              Z
 ---- ---------------- ---------- -------------- -------------- --------------
    1 H                    1.0000     0.97814221     1.07101281     0.07002338
    2 H                    1.0000    -0.80833086     1.23722123     0.06993297
    3 C                    6.0000     0.04354251     0.58042963    -0.00702429
    4 O                    8.0000    -0.11419663    -0.60884422     0.00433082

      Atomic Mass 
      ----------- 

      H                  1.007825
      C                 12.000000
      O                 15.994910


 Effective nuclear repulsion energy (a.u.)      31.6676786074

            Nuclear Dipole moment (a.u.) 
            ----------------------------
        X                 Y               Z
 ---------------- ---------------- ----------------
    -0.9118053003     1.7386575937     0.2503077531

                                 NWChem SCF Module
                                 -----------------



  ao basis        = "qsl"
  functions       =    22
  atoms           =     4
  closed shells   =     8
  open shells     =     0
  charge          =   0.00
  wavefunction    = RHF 
  input vectors   = ./h2co_dat.movecs
  output vectors  = ./h2co_dat.movecs
  use symmetry    = F
  symmetry adapt  = F


 Summary of "ao basis" -> "qsl" (cartesian)
 ------------------------------------------------------------------------------
       Tag                 Description            Shells   Functions and Types
 ---------------- ------------------------------  ------  ---------------------
 H                           6-31g                   2        2   2s
 C                           6-31g                   3        9   3s2p
 O                           6-31g                   3        9   3s2p



  The SCF is already converged 

         Total SCF energy =   -113.806020409812

                              NWChem Gradients Module
                              -----------------------



  wavefunction    =   RHF     

 HVD: basin  =                   567
 HVD: basin2 =                   566


                         RHF ENERGY GRADIENTS

    atom               coordinates                        gradient
                 x          y          z           x          y          z
   1 H       1.848421   2.023921   0.132325   -0.020199  -0.001322   0.006671
   2 H      -1.527524   2.338009   0.132154    0.003487  -0.004064   0.007599
   3 C       0.082283   1.096853  -0.013274    0.022283  -0.015029  -0.021372
   4 O      -0.215800  -1.150549   0.008184   -0.005570   0.020415   0.007103

                 ----------------------------------------
                 |  Time  |  1-e(secs)   |  2-e(secs)   |
                 ----------------------------------------
                 |  CPU   |       0.00   |       0.30   |
                 ----------------------------------------
                 |  WALL  |       0.00   |       0.32   |
                 ----------------------------------------
  no constraints, skipping    0.0000000000000000     

  Step       Energy      Delta E   Gmax     Grms     Xrms     Xmax   Walltime
  ---- ---------------- -------- -------- -------- -------- -------- --------
@    2    -113.80602041 -1.6D-02  0.01944  0.00811  0.08139  0.16384      3.4
                                                                    



                                Z-matrix (autoz)
                                -------- 

 Units are Angstrom for bonds and degrees for angles

      Type          Name      I     J     K     L     M      Value     Gradient
      ----------- --------  ----- ----- ----- ----- ----- ---------- ----------
    1 Stretch                  1     3                       1.05834   -0.01796
    2 Stretch                  2     3                       1.07842   -0.00469
    3 Stretch                  3     4                       1.19974   -0.01944
    4 Bend                     1     3     2               114.20888   -0.00262
    5 Bend                     1     3     4               125.09342    0.00600
    6 Bend                     2     3     4               119.94608   -0.00355
    7 Torsion                  1     3     2     4        -170.56811    0.00049
    8 Torsion                  1     3     4     2         169.47469   -0.00155
    9 Torsion                  2     3     1     4         170.00602   -0.00162
   10 Torsion                  1     4     3     2        -169.47469    0.00155
   11 Torsion                  1     2     3     4         170.56811   -0.00049
   12 Torsion                  2     1     3     4        -170.00602    0.00162

  no constraints, skipping    0.0000000000000000     
  no constraints, skipping    0.0000000000000000     
  no constraints, skipping    0.0000000000000000     
  no constraints, skipping    0.0000000000000000     
  no constraints, skipping    0.0000000000000000     
  no constraints, skipping    0.0000000000000000     
  no constraints, skipping    0.0000000000000000     
  no constraints, skipping    0.0000000000000000     
                                 NWChem SCF Module
                                 -----------------



  ao basis        = "qsl"
  functions       =    22
  atoms           =     4
  closed shells   =     8
  open shells     =     0
  charge          =   0.00
  wavefunction    = RHF 
  input vectors   = ./h2co_dat.movecs
  output vectors  = ./h2co_dat.movecs
  use symmetry    = F
  symmetry adapt  = F


 Summary of "ao basis" -> "qsl" (cartesian)
 ------------------------------------------------------------------------------
       Tag                 Description            Shells   Functions and Types
 ---------------- ------------------------------  ------  ---------------------
 H                           6-31g                   2        2   2s
 C                           6-31g                   3        9   3s2p
 O                           6-31g                   3        9   3s2p



 Forming initial guess at       3.4s


 Loading old vectors from job with title :




 Starting SCF solution at       3.4s



 ----------------------------------------------
         Quadratically convergent ROHF

 Convergence threshold     :          1.000E-04
 Maximum no. of iterations :           30
 Final Fock-matrix accuracy:          1.000E-07
 ----------------------------------------------


              iter       energy          gnorm     gmax       time
             ----- ------------------- --------- --------- --------
                 1     -113.8065826076  8.90D-02  3.16D-02      3.1
                 2     -113.8073816378  5.49D-03  1.51D-03      3.2
                 3     -113.8073844519  1.94D-05  1.19D-05      3.5


       Final RHF  results 
       ------------------ 

         Total SCF energy =   -113.807384451894
      One-electron energy =   -217.342460884143
      Two-electron energy =     72.093763015714
 Nuclear repulsion energy =     31.441313416535

        Time for solution =      0.4s


             Final eigenvalues
             -----------------

              1      
    1  -20.5936
    2  -11.3488
    3   -1.4290
    4   -0.8787
    5   -0.7083
    6   -0.6442
    7   -0.5329
    8   -0.4420
    9    0.1256
   10    0.2461
   11    0.3269
   12    0.3699
   13    0.7338
   14    0.8233
   15    0.8572
   16    0.9832
   17    1.1488
   18    1.1620

                       ROHF Final Molecular Orbital Analysis
                       -------------------------------------

 Vector    2  Occ=2.000000D+00  E=-1.134879D+01
   Bfn.  Coefficient  Atom+Function         Bfn.  Coefficient  Atom+Function  
  ----- ------------  ---------------      ----- ------------  ---------------
     5      0.996110  3 C  s          

 Vector    3  Occ=2.000000D+00  E=-1.428985D+00
   Bfn.  Coefficient  Atom+Function         Bfn.  Coefficient  Atom+Function  
  ----- ------------  ---------------      ----- ------------  ---------------
    15      0.438582  4 O  ls                19      0.421923  4 O  ls         
     6      0.229089  3 C  ls                14     -0.197195  4 O  s          
     8     -0.183844  3 C  ly                17      0.161605  4 O  ly         

 Vector    4  Occ=2.000000D+00  E=-8.787266D-01
   Bfn.  Coefficient  Atom+Function         Bfn.  Coefficient  Atom+Function  
  ----- ------------  ---------------      ----- ------------  ---------------
     6      0.355993  3 C  ls                10      0.321558  3 C  ls         
    19     -0.282909  4 O  ls                15     -0.203883  4 O  ls         
     3      0.190533  2 H  s                  8      0.186137  3 C  ly         
     1      0.181633  1 H  s                  5     -0.162326  3 C  s          

 Vector    5  Occ=2.000000D+00  E=-7.083477D-01
   Bfn.  Coefficient  Atom+Function         Bfn.  Coefficient  Atom+Function  
  ----- ------------  ---------------      ----- ------------  ---------------
     7      0.420116  3 C  lx                16      0.339458  4 O  lx         
     1      0.183982  1 H  s                  3     -0.182418  2 H  s          
    20      0.179101  4 O  lx                11      0.177738  3 C  lx         

 Vector    6  Occ=2.000000D+00  E=-6.441665D-01
   Bfn.  Coefficient  Atom+Function         Bfn.  Coefficient  Atom+Function  
  ----- ------------  ---------------      ----- ------------  ---------------
    17      0.509498  4 O  ly                 8     -0.387727  3 C  ly         
    19     -0.317741  4 O  ls                21      0.270773  4 O  ly         
    15     -0.166696  4 O  ls         

 Vector    7  Occ=2.000000D+00  E=-5.328746D-01
   Bfn.  Coefficient  Atom+Function         Bfn.  Coefficient  Atom+Function  
  ----- ------------  ---------------      ----- ------------  ---------------
    18      0.486336  4 O  lz                22      0.349404  4 O  lz         
     9      0.343615  3 C  lz                13      0.220609  3 C  lz         

 Vector    8  Occ=2.000000D+00  E=-4.419640D-01
   Bfn.  Coefficient  Atom+Function         Bfn.  Coefficient  Atom+Function  
  ----- ------------  ---------------      ----- ------------  ---------------
    16      0.560829  4 O  lx                20      0.442200  4 O  lx         
     2     -0.243802  1 H  s                  4      0.241270  2 H  s          
[...]
   Bfn.  Coefficient  Atom+Function         Bfn.  Coefficient  Atom+Function  
  ----- ------------  ---------------      ----- ------------  ---------------
    13     -1.114472  3 C  lz                 9      1.092209  3 C  lz         

 Vector   14  Occ=0.000000D+00  E= 8.250269D-01
   Bfn.  Coefficient  Atom+Function         Bfn.  Coefficient  Atom+Function  
  ----- ------------  ---------------      ----- ------------  ---------------
    11      2.364079  3 C  lx                 2     -0.977414  1 H  s          
     4      0.977423  2 H  s                  7     -0.761372  3 C  lx         
     1     -0.353172  1 H  s                  3      0.353181  2 H  s          
    16     -0.320401  4 O  lx                20     -0.249776  4 O  lx         
    12     -0.246401  3 C  ly         

 Vector   15  Occ=0.000000D+00  E= 8.537706D-01
   Bfn.  Coefficient  Atom+Function         Bfn.  Coefficient  Atom+Function  
  ----- ------------  ---------------      ----- ------------  ---------------
    10      2.484129  3 C  ls                12      0.927133  3 C  ly         
     6     -0.909958  3 C  ls                 1     -0.596146  1 H  s          
     3     -0.596139  2 H  s                  8     -0.549277  3 C  ly         
     2     -0.485836  1 H  s                  4     -0.485820  2 H  s          
    21     -0.380595  4 O  ly                15     -0.217345  4 O  ls         

 Vector   16  Occ=0.000000D+00  E= 9.793265D-01
   Bfn.  Coefficient  Atom+Function         Bfn.  Coefficient  Atom+Function  
  ----- ------------  ---------------      ----- ------------  ---------------
     6      1.216413  3 C  ls                 8     -1.014701  3 C  ly         
    21     -0.778342  4 O  ly                10     -0.724450  3 C  ls         
    12      0.306519  3 C  ly                17     -0.249957  4 O  ly         
     1      0.191636  1 H  s                  3      0.191639  2 H  s          
    15     -0.162365  4 O  ls                19     -0.160551  4 O  ls         

 Vector   17  Occ=0.000000D+00  E= 1.153808D+00
   Bfn.  Coefficient  Atom+Function         Bfn.  Coefficient  Atom+Function  
  ----- ------------  ---------------      ----- ------------  ---------------
     2      1.350228  1 H  s                  4     -1.350243  2 H  s          
    11     -1.254932  3 C  lx                 7      0.859058  3 C  lx         
     1     -0.799882  1 H  s                  3      0.799890  2 H  s          
    20      0.408819  4 O  lx                16     -0.322071  4 O  lx         

 Vector   18  Occ=0.000000D+00  E= 1.157126D+00
   Bfn.  Coefficient  Atom+Function         Bfn.  Coefficient  Atom+Function  
  ----- ------------  ---------------      ----- ------------  ---------------
    10      2.708779  3 C  ls                 6     -1.279615  3 C  ls         
     2     -1.257615  1 H  s                  4     -1.257596  2 H  s          
     1      0.675656  1 H  s                  3      0.675647  2 H  s          
    21     -0.514894  4 O  ly                 8     -0.443832  3 C  ly         
    12      0.434576  3 C  ly                19     -0.389772  4 O  ls         


 center of mass
 --------------
 x =  -0.06834852 y =  -0.02827257 z =   0.02460529

 moments of inertia (a.u.)
 ------------------
          46.077303496638          -4.160521558454          -0.175585873079
          -4.160521558454           6.588560053091          -1.672826617871
          -0.175585873079          -1.672826617871          52.544046954112

  Mulliken analysis of the total density
  --------------------------------------

    Atom       Charge   Shell Charges
 -----------   ------   -------------------------------------------------------
    1 H    1     0.85   0.55  0.30
    2 H    1     0.85   0.55  0.30
    3 C    6     5.84   2.00  2.69  1.15
    4 O    8     8.45   2.00  3.75  2.71
 Line search: 
     step= 1.00 grad=-1.6D-09 hess= 1.5D-09 energy=   -113.808367 mode=accept  
 new step= 1.00                   predicted energy=   -113.808367
  no constraints, skipping    0.0000000000000000     
  no constraints, skipping    0.0000000000000000     
  no constraints, skipping    0.0000000000000000     

          --------
          Step   9
          --------


                         Geometry "geometry" -> "geometry"
                         ---------------------------------

 Output coordinates in angstroms (scale by  1.889725989 to convert to a.u.)

  No.       Tag          Charge          X              Y              Z
 ---- ---------------- ---------- -------------- -------------- --------------
    1 H                    1.0000     1.00073652     1.05777272     0.05573606
    2 H                    1.0000    -0.82960005     1.24853698     0.05536069
    3 C                    6.0000     0.02668661     0.58815880     0.03497870
    4 O                    8.0000    -0.09866584    -0.61464905    -0.00881257

      Atomic Mass 
      ----------- 

      H                  1.007825
      C                 12.000000
      O                 15.994910


 Effective nuclear repulsion energy (a.u.)      31.3772830760

            Nuclear Dipole moment (a.u.) 
            ----------------------------
        X                 Y               Z
 ---------------- ---------------- ----------------
    -0.8656279361     1.7349009747     0.4733166485

                                 NWChem SCF Module
                                 -----------------



  ao basis        = "qsl"
  functions       =    22
  atoms           =     4
  closed shells   =     8
  open shells     =     0
  charge          =   0.00
  wavefunction    = RHF 
  input vectors   = ./h2co_dat.movecs
  output vectors  = ./h2co_dat.movecs
  use symmetry    = F
  symmetry adapt  = F


 Summary of "ao basis" -> "qsl" (cartesian)
 ------------------------------------------------------------------------------
       Tag                 Description            Shells   Functions and Types
 ---------------- ------------------------------  ------  ---------------------
 H                           6-31g                   2        2   2s
 C                           6-31g                   3        9   3s2p
 O                           6-31g                   3        9   3s2p



  The SCF is already converged 

         Total SCF energy =   -113.808366549201

                              NWChem Gradients Module
                              -----------------------



  wavefunction    =   RHF     

 HVD: basin  =                   567
 HVD: basin2 =                   566


                         RHF ENERGY GRADIENTS

    atom               coordinates                        gradient
                 x          y          z           x          y          z
   1 H       1.891118   1.998901   0.105326   -0.000003  -0.000001   0.000000
   2 H      -1.567717   2.359393   0.104617   -0.000002   0.000001   0.000001
   3 C       0.050430   1.111459   0.066100    0.000012  -0.000008  -0.000016
   4 O      -0.186451  -1.161518  -0.016653   -0.000007   0.000008   0.000015

                 ----------------------------------------
                 |  Time  |  1-e(secs)   |  2-e(secs)   |
                 ----------------------------------------
                 |  CPU   |       0.00   |       0.30   |
                 ----------------------------------------
                 |  WALL  |       0.00   |       0.32   |
                 ----------------------------------------
  no constraints, skipping    0.0000000000000000     

  Step       Energy      Delta E   Gmax     Grms     Xrms     Xmax   Walltime
  ---- ---------------- -------- -------- -------- -------- -------- --------
@    9    -113.80836655 -9.7D-11  0.00001  0.00000  0.00002  0.00004     10.0
                                     ok       ok       ok       ok  



                                Z-matrix (autoz)
                                -------- 

 Units are Angstrom for bonds and degrees for angles

      Type          Name      I     J     K     L     M      Value     Gradient
      ----------- --------  ----- ----- ----- ----- ----- ---------- ----------
    1 Stretch                  1     3                       1.08155   -0.00000
    2 Stretch                  2     3                       1.08155    0.00000
    3 Stretch                  3     4                       1.21011   -0.00001
    4 Bend                     1     3     2               116.58673    0.00000
    5 Bend                     1     3     4               121.70666    0.00000
    6 Bend                     2     3     4               121.70661   -0.00000
    7 Torsion                  1     3     2     4         179.99995    0.00000
    8 Torsion                  1     3     4     2        -179.99995   -0.00000
    9 Torsion                  2     3     1     4        -179.99995   -0.00000
   10 Torsion                  1     4     3     2         179.99995    0.00000
   11 Torsion                  1     2     3     4        -179.99995   -0.00000
   12 Torsion                  2     1     3     4         179.99995    0.00000


      ----------------------
      Optimization converged
      ----------------------


  Step       Energy      Delta E   Gmax     Grms     Xrms     Xmax   Walltime
  ---- ---------------- -------- -------- -------- -------- -------- --------
@    9    -113.80836655 -9.7D-11  0.00001  0.00000  0.00002  0.00004     10.0
                                     ok       ok       ok       ok  



                                Z-matrix (autoz)
                                -------- 

 Units are Angstrom for bonds and degrees for angles

      Type          Name      I     J     K     L     M      Value     Gradient
      ----------- --------  ----- ----- ----- ----- ----- ---------- ----------
    1 Stretch                  1     3                       1.08155   -0.00000
    2 Stretch                  2     3                       1.08155    0.00000
    3 Stretch                  3     4                       1.21011   -0.00001
    4 Bend                     1     3     2               116.58673    0.00000
    5 Bend                     1     3     4               121.70666    0.00000
    6 Bend                     2     3     4               121.70661   -0.00000
    7 Torsion                  1     3     2     4         179.99995    0.00000
    8 Torsion                  1     3     4     2        -179.99995   -0.00000
    9 Torsion                  2     3     1     4        -179.99995   -0.00000
   10 Torsion                  1     4     3     2         179.99995    0.00000
   11 Torsion                  1     2     3     4        -179.99995   -0.00000
   12 Torsion                  2     1     3     4         179.99995    0.00000



                         Geometry "geometry" -> "geometry"
                         ---------------------------------

 Output coordinates in angstroms (scale by  1.889725989 to convert to a.u.)

  No.       Tag          Charge          X              Y              Z
 ---- ---------------- ---------- -------------- -------------- --------------
    1 H                    1.0000     1.00073652     1.05777272     0.05573606
    2 H                    1.0000    -0.82960005     1.24853698     0.05536069
    3 C                    6.0000     0.02668661     0.58815880     0.03497870
    4 O                    8.0000    -0.09866584    -0.61464905    -0.00881257

      Atomic Mass 
      ----------- 

      H                  1.007825
      C                 12.000000
      O                 15.994910


 Effective nuclear repulsion energy (a.u.)      31.3772830760

            Nuclear Dipole moment (a.u.) 
            ----------------------------
        X                 Y               Z
 ---------------- ---------------- ----------------
    -0.8656279361     1.7349009747     0.4733166485


                Final and change from initial internal coordinates
                --------------------------------------------------



                                Z-matrix (autoz)
                                -------- 

 Units are Angstrom for bonds and degrees for angles

      Type          Name      I     J     K     L     M      Value       Change
      ----------- --------  ----- ----- ----- ----- ----- ---------- ----------
    1 Stretch                  1     3                       1.08155   -0.17543
    2 Stretch                  2     3                       1.08155   -0.33267
    3 Stretch                  3     4                       1.21011    0.21011
    4 Bend                     1     3     2               116.58673   16.87081
    5 Bend                     1     3     4               121.70666   -2.13434
    6 Bend                     2     3     4               121.70661  -13.29339
    7 Torsion                  1     3     2     4         179.99995  -14.01295
    8 Torsion                  1     3     4     2        -179.99995   16.69930
    9 Torsion                  2     3     1     4        -179.99995   11.89643
   10 Torsion                  1     4     3     2         179.99995  -16.69930
   11 Torsion                  1     2     3     4        -179.99995   14.01295
   12 Torsion                  2     1     3     4         179.99995  -11.89643

 ==============================================================================
                                internuclear distances
 ------------------------------------------------------------------------------
       center one      |      center two      | atomic units |  angstroms
 ------------------------------------------------------------------------------
    3 C                |   1 H                |     2.04383  |     1.08155
    3 C                |   2 H                |     2.04383  |     1.08155
    4 O                |   3 C                |     2.28679  |     1.21011
 ------------------------------------------------------------------------------
                         number of included internuclear distances:          3
 ==============================================================================



 ==============================================================================
                                 internuclear angles
 ------------------------------------------------------------------------------
        center 1       |       center 2       |       center 3       |  degrees
 ------------------------------------------------------------------------------
    1 H                |   3 C                |   2 H                |   116.59
    1 H                |   3 C                |   4 O                |   121.71
    2 H                |   3 C                |   4 O                |   121.71
 ------------------------------------------------------------------------------
                            number of included internuclear angles:          3
 ==============================================================================




 Task  times  cpu:        9.0s     wall:       10.0s


                                NWChem Input Module
                                -------------------


 Summary of allocated global arrays
-----------------------------------
  No active global arrays



                         GA Statistics for process    0
                         ------------------------------

       create   destroy   get      put      acc     scatter   gather  read&inc
calls: 2648     2648     9.73e+04 6899     8407        0        0     4131     
number of processes/call 0.00e+00 0.00e+00 0.00e+00 0.00e+00 0.00e+00
bytes total:             1.09e+07 5.62e+06 1.95e+06 0.00e+00 0.00e+00 3.30e+04
bytes remote:            0.00e+00 0.00e+00 0.00e+00 0.00e+00 0.00e+00 0.00e+00
Max memory consumed for GA by this process: 56352 bytes

MA_summarize_allocated_blocks: starting scan ...
MA_summarize_allocated_blocks: scan completed: 0 heap blocks, 0 stack blocks
MA usage statistics:

	allocation statistics:
					      heap	     stack
					      ----	     -----
	current number of blocks	         0	         0
	maximum number of blocks	        24	        28
	current total bytes		         0	         0
	maximum total bytes		     80136	  22509608
	maximum total K-bytes		        81	     22510
	maximum total M-bytes		         1	        23


                                     CITATION
                                     --------
                Please cite the following reference when publishing
                           results obtained with NWChem:

          E. Apr, E. J. Bylaska, W. A. de Jong, N. Govind, K. Kowalski,
       T. P. Straatsma, M. Valiev, H. J. J. van Dam, Y. Alexeev, J. Anchell,
       V. Anisimov, F. W. Aquino, R. Atta-Fynn, J. Autschbach, N. P. Bauman,
     J. C. Becca, D. E. Bernholdt, K. Bhaskaran-Nair, S. Bogatko, P. Borowski,
        J. Boschen, J. Brabec, A. Bruner, E. Caut, Y. Chen, G. N. Chuev,
      C. J. Cramer, J. Daily, M. J. O. Deegan, T. H. Dunning Jr., M. Dupuis,
   K. G. Dyall, G. I. Fann, S. A. Fischer, A. Fonari, H. Frchtl, L. Gagliardi,
      J. Garza, N. Gawande, S. Ghosh, K. Glaesemann, A. W. Gtz, J. Hammond,
       V. Helms, E. D. Hermes, K. Hirao, S. Hirata, M. Jacquelin, L. Jensen,
   B. G. Johnson, H. Jnsson, R. A. Kendall, M. Klemm, R. Kobayashi, V. Konkov,
      S. Krishnamoorthy, M. Krishnan, Z. Lin, R. D. Lins, R. J. Littlefield,
      A. J. Logsdail, K. Lopata, W. Ma, A. V. Marenich, J. Martin del Campo,
   D. Mejia-Rodriguez, J. E. Moore, J. M. Mullin, T. Nakajima, D. R. Nascimento,
    J. A. Nichols, P. J. Nichols, J. Nieplocha, A. Otero-de-la-Roza, B. Palmer,
    A. Panyala, T. Pirojsirikul, B. Peng, R. Peverati, J. Pittner, L. Pollack,
   R. M. Richard, P. Sadayappan, G. C. Schatz, W. A. Shelton, D. W. Silverstein,
   D. M. A. Smith, T. A. Soares, D. Song, M. Swart, H. L. Taylor, G. S. Thomas,
            V. Tipparaju, D. G. Truhlar, K. Tsemekhman, T. Van Voorhis,
     . Vzquez-Mayagoitia, P. Verma, O. Villa, A. Vishnu, K. D. Vogiatzis,
        D. Wang, J. H. Weare, M. J. Williamson, T. L. Windus, K. Woliski,
        A. T. Wong, Q. Wu, C. Yang, Q. Yu, M. Zacharias, Z. Zhang, Y. Zhao,
                                and R. J. Harrison
                        "NWChem: Past, present, and future
                         J. Chem. Phys. 152, 184102 (2020)
                               doi:10.1063/5.0004997

                                      AUTHORS
                                      -------
     E. Apra, E. J. Bylaska, N. Govind, K. Kowalski, M. Valiev, W. A. de Jong,
      T. P. Straatsma, H. J. J. van Dam, D. Wang, T. L. Windus, N. P. Bauman,
       A. Panyala, J. Hammond, J. Autschbach, K. Bhaskaran-Nair, J. Brabec,
    K. Lopata, S. A. Fischer, S. Krishnamoorthy, M. Jacquelin, W. Ma, M. Klemm,
       O. Villa, Y. Chen, V. Anisimov, F. Aquino, S. Hirata, M. T. Hackler,
           Eric Hermes, L. Jensen, J. E. Moore, J. C. Becca, V. Konjkov,
            D. Mejia-Rodriguez, T. Risthaus, M. Malagoli, A. Marenich,
   A. Otero-de-la-Roza, J. Mullin, P. Nichols, R. Peverati, J. Pittner, Y. Zhao,
        P.-D. Fan, A. Fonari, M. J. Williamson, R. J. Harrison, J. R. Rehr,
      M. Dupuis, D. Silverstein, D. M. A. Smith, J. Nieplocha, V. Tipparaju,
      M. Krishnan, B. E. Van Kuiken, A. Vazquez-Mayagoitia, M. Swart, Q. Wu,
   T. Van Voorhis, A. A. Auer, M. Nooijen, L. D. Crosby, E. Brown, G. Cisneros,
     G. I. Fann, H. Fruchtl, J. Garza, K. Hirao, R. A. Kendall, J. A. Nichols,
       K. Tsemekhman, K. Wolinski, J. Anchell, D. E. Bernholdt, P. Borowski,
       T. Clark, D. Clerc, H. Dachsel, M. J. O. Deegan, K. Dyall, D. Elwood,
      E. Glendening, M. Gutowski, A. C. Hess, J. Jaffe, B. G. Johnson, J. Ju,
        R. Kobayashi, R. Kutteh, Z. Lin, R. Littlefield, X. Long, B. Meng,
      T. Nakajima, S. Niu, L. Pollack, M. Rosing, K. Glaesemann, G. Sandrone,
      M. Stave, H. Taylor, G. Thomas, J. H. van Lenthe, A. T. Wong, Z. Zhang.

 Total times  cpu:        9.1s     wall:       10.0s
