 argument  1 = wfn1_h2_eq.nw



============================== echo of input deck ==============================
echo
start wfn1_h2_dat

geometry
  h 0 0 -0.366269
  h 0 0  0.366269
end
basis
  * library 6-31g**
end

#task scf energy

set wfn1:print_error T
set wfn1:maxit 200
set wfn1:t_bath 0.0

task wfn1 energy

set wfn1:print_error T
set wfn1:maxit 2000
set wfn1:t_bath 0.1

task wfn1 energy
================================================================================


                                         
                                         


              Northwest Computational Chemistry Package (NWChem) 6.8
              ------------------------------------------------------


                    Environmental Molecular Sciences Laboratory
                       Pacific Northwest National Laboratory
                                Richland, WA 99352

                              Copyright (c) 1994-2015
                       Pacific Northwest National Laboratory
                            Battelle Memorial Institute

             NWChem is an open-source computational chemistry package
                        distributed under the terms of the
                      Educational Community License (ECL) 2.0
             A copy of the license is included with this distribution
                              in the LICENSE.TXT file

                                  ACKNOWLEDGMENT
                                  --------------

            This software and its documentation were developed at the
            EMSL at Pacific Northwest National Laboratory, a multiprogram
            national laboratory, operated for the U.S. Department of Energy
            by Battelle under Contract Number DE-AC05-76RL01830. Support
            for this work was provided by the Department of Energy Office
            of Biological and Environmental Research, Office of Basic
            Energy Sciences, and the Office of Advanced Scientific Computing.


           Job information
           ---------------

    hostname        = erato
    program         = ../../../bin/LINUX64/nwchem
    date            = Wed May 16 22:27:36 2018

    compiled        = Wed_May_16_22:23:30_2018
    source          = /home/hvandam/nwchem-1-wfn1
    nwchem branch   = Development
    nwchem revision = nwchem_on_git-51-gcccac83fc2a4226c5c513281d68ab773edcb0a0d
    ga revision     = nwchem_on_git-43-g1da910a
    use scalapack   = F
    input           = wfn1_h2_eq.nw
    prefix          = wfn1_h2_dat.
    data base       = ./wfn1_h2_dat.db
    status          = startup
    nproc           =        1
    time left       =     -1s



           Memory information
           ------------------

    heap     =   13107200 doubles =    100.0 Mbytes
    stack    =   13107197 doubles =    100.0 Mbytes
    global   =   26214400 doubles =    200.0 Mbytes (distinct from heap & stack)
    total    =   52428797 doubles =    400.0 Mbytes
    verify   = yes
    hardfail = no 


           Directory information
           ---------------------

  0 permanent = .
  0 scratch   = .




                                NWChem Input Module
                                -------------------



 Scaling coordinates for geometry "geometry" by  1.889725989
 (inverse scale =  0.529177249)

 ORDER OF PRIMARY AXIS IS BEING SET TO 4
 D4H symmetry detected

          ------
          auto-z
          ------
  no constraints, skipping    0.0000000000000000     
  no constraints, skipping    0.0000000000000000     


                             Geometry "geometry" -> ""
                             -------------------------

 Output coordinates in angstroms (scale by  1.889725989 to convert to a.u.)

  No.       Tag          Charge          X              Y              Z
 ---- ---------------- ---------- -------------- -------------- --------------
    1 h                    1.0000     0.00000000     0.00000000    -0.36626900
    2 h                    1.0000     0.00000000     0.00000000     0.36626900

      Atomic Mass 
      ----------- 

      h                  1.007825


 Effective nuclear repulsion energy (a.u.)       0.7223888030

            Nuclear Dipole moment (a.u.) 
            ----------------------------
        X                 Y               Z
 ---------------- ---------------- ----------------
     0.0000000000     0.0000000000     0.0000000000

      Symmetry information
      --------------------

 Group name             D4h       
 Group number             28
 Group order              16
 No. of unique centers     1

      Symmetry unique atoms

     1



                                Z-matrix (autoz)
                                -------- 

 Units are Angstrom for bonds and degrees for angles

      Type          Name      I     J     K     L     M      Value
      ----------- --------  ----- ----- ----- ----- ----- ----------
    1 Stretch                  1     2                       0.73254


            XYZ format geometry
            -------------------
     2
 geometry
 h                     0.00000000     0.00000000    -0.36626900
 h                     0.00000000     0.00000000     0.36626900



 Summary of "ao basis" -> "" (cartesian)
 ------------------------------------------------------------------------------
       Tag                 Description            Shells   Functions and Types
 ---------------- ------------------------------  ------  ---------------------
 *                          6-31g**                   on all atoms 



                                NWChem WFN1 Module
                                ------------------


                      Basis "ao basis" -> "ao basis" (cartesian)
                      -----
  h (Hydrogen)
  ------------
            Exponent  Coefficients 
       -------------- ---------------------------------------------------------
  1 S  1.87311370E+01  0.033495
  1 S  2.82539370E+00  0.234727
  1 S  6.40121700E-01  0.813757

  2 S  1.61277800E-01  1.000000

  3 P  1.10000000E+00  1.000000



 Summary of "ao basis" -> "ao basis" (cartesian)
 ------------------------------------------------------------------------------
       Tag                 Description            Shells   Functions and Types
 ---------------- ------------------------------  ------  ---------------------
 h                          6-31g**                  3        5   2s1p



      Superposition of Atomic Density Guess
      -------------------------------------

 Sum of atomic energies:          -0.99646508

      Non-variational initial energy
      ------------------------------

 Total energy =      -0.847270
 1-e energy   =      -2.227930
 2-e energy   =       0.658271
 HOMO         =      -0.587130
 LUMO         =       0.177484

 iteration              energy           error          err Na          err Nb          err Ca          err Cb
 ---------              ------           -----          ------          ------          ------          ------
         1         -1.13127468        0.000077        0.000038        0.000038        0.000000        0.000000
         2         -1.13133035        0.000002        0.000001        0.000001        0.000000        0.000000
         3         -1.13133341        0.000000        0.000000        0.000000        0.000000        0.000000

 Reached Convergence

 WFN1                     :
 --------------------------
 Total WFN1 energy =          -1.1313334088
 1-Electron energy =          -2.5129306455
 2-Electron energy =           0.6592084337
 Entropy energy    =           0.0000000000
 Nuclear energy    =           0.7223888030

 conventional Hartree-Fock:
 --------------------------
 Total SCF energy  =          -1.1313334088
 2-Electron energy =           0.6592084337

                WFN1 Final Natural orbital energies and occupations
                ---------------------------------------------------

              Alpha       Beta            Alpha       Beta  
            --------    --------        --------    --------
       1     -0.5973     -0.5973          1.0000      1.0000
       2      0.0000      0.0000          0.0000      0.0000
       3      0.0000      0.0000          0.0000      0.0000
       4      0.0000      0.0000          0.0000      0.0000
       5      0.0000      0.0000          0.0000      0.0000
       6      0.0000      0.0000          0.0000      0.0000
       7      0.0000      0.0000          0.0000      0.0000
       8      0.0000      0.0000          0.0000      0.0000
       9      0.0000      0.0000          0.0000      0.0000
      10      0.0000      0.0000          0.0000      0.0000

             WFN1 Final Correlation function energies and occupations
             --------------------------------------------------------

              Alpha       Beta            Alpha       Beta  
            --------    --------        --------    --------
       1     -0.5973     -0.5973          1.0000      1.0000
       2      0.2440      0.2440          0.0000      0.0000
       3      0.7681      0.7681          0.0000      0.0000
       4      1.3151      1.3151          0.0000      0.0000
       5      1.9590      1.9590          0.0000      0.0000
       6      1.9590      1.9590          0.0000      0.0000
       7      2.7207      2.7207          0.0000      0.0000
       8      2.9398      2.9398          0.0000      0.0000
       9      2.9398      2.9398          0.0000      0.0000
      10      4.5737      4.5737          0.0000      0.0000

                WFN1 Final alpha-alpha 2-matrix occupation numbers
                --------------------------------------------------


 global array: g_momo1[1:10,1:10],  handle: -994 

            1           2           3           4           5           6  
       ----------- ----------- ----------- ----------- ----------- -----------
   1       0.00000     0.00000     0.00000     0.00000     0.00000     0.00000
   2       0.00000     0.00000     0.00000     0.00000     0.00000     0.00000
   3       0.00000     0.00000     0.00000     0.00000     0.00000     0.00000
   4       0.00000     0.00000     0.00000     0.00000     0.00000     0.00000
   5       0.00000     0.00000     0.00000     0.00000     0.00000     0.00000
   6       0.00000     0.00000     0.00000     0.00000     0.00000     0.00000
   7       0.00000     0.00000     0.00000     0.00000     0.00000     0.00000
   8       0.00000     0.00000     0.00000     0.00000     0.00000     0.00000
   9       0.00000     0.00000     0.00000     0.00000     0.00000     0.00000
  10       0.00000     0.00000     0.00000     0.00000     0.00000     0.00000

            7           8           9          10  
       ----------- ----------- ----------- -----------
   1       0.00000     0.00000     0.00000     0.00000
   2       0.00000     0.00000     0.00000     0.00000
   3       0.00000     0.00000     0.00000     0.00000
   4       0.00000     0.00000     0.00000     0.00000
   5       0.00000     0.00000     0.00000     0.00000
   6       0.00000     0.00000     0.00000     0.00000
   7       0.00000     0.00000     0.00000     0.00000
   8       0.00000     0.00000     0.00000     0.00000
   9       0.00000     0.00000     0.00000     0.00000
  10       0.00000     0.00000     0.00000     0.00000

                 WFN1 Final beta-beta 2-matrix occupation numbers
                 ------------------------------------------------


 global array: g_momo2[1:10,1:10],  handle: -993 

            1           2           3           4           5           6  
       ----------- ----------- ----------- ----------- ----------- -----------
   1       0.00000     0.00000     0.00000     0.00000     0.00000     0.00000
   2       0.00000     0.00000     0.00000     0.00000     0.00000     0.00000
   3       0.00000     0.00000     0.00000     0.00000     0.00000     0.00000
   4       0.00000     0.00000     0.00000     0.00000     0.00000     0.00000
   5       0.00000     0.00000     0.00000     0.00000     0.00000     0.00000
   6       0.00000     0.00000     0.00000     0.00000     0.00000     0.00000
   7       0.00000     0.00000     0.00000     0.00000     0.00000     0.00000
   8       0.00000     0.00000     0.00000     0.00000     0.00000     0.00000
   9       0.00000     0.00000     0.00000     0.00000     0.00000     0.00000
  10       0.00000     0.00000     0.00000     0.00000     0.00000     0.00000

            7           8           9          10  
       ----------- ----------- ----------- -----------
   1       0.00000     0.00000     0.00000     0.00000
   2       0.00000     0.00000     0.00000     0.00000
   3       0.00000     0.00000     0.00000     0.00000
   4       0.00000     0.00000     0.00000     0.00000
   5       0.00000     0.00000     0.00000     0.00000
   6       0.00000     0.00000     0.00000     0.00000
   7       0.00000     0.00000     0.00000     0.00000
   8       0.00000     0.00000     0.00000     0.00000
   9       0.00000     0.00000     0.00000     0.00000
  10       0.00000     0.00000     0.00000     0.00000

                  WFN1 Final alpha Correlation Function Analysis
                  ----------------------------------------------


 global array: Ca[1:10,1:10],  handle: -984 

            1           2           3           4           5           6  
       ----------- ----------- ----------- ----------- ----------- -----------
   1       1.00000     0.00000     0.00000     0.00000     0.00000     0.00000
   2       0.00000     1.00000     0.00000     0.00000     0.00000     0.00000
   3       0.00000     0.00000     1.00000     0.00000     0.00000     0.00000
   4       0.00000     0.00000     0.00000     1.00000     0.00000     0.00000
   5       0.00000     0.00000     0.00000     0.00000     0.00000     1.00000
   6       0.00000     0.00000     0.00000     0.00000     1.00000     0.00000
   7       0.00000     0.00000     0.00000     0.00000     0.00000     0.00000
   8       0.00000     0.00000     0.00000     0.00000     0.00000     0.00000
   9       0.00000     0.00000     0.00000     0.00000     0.00000     0.00000
  10       0.00000     0.00000     0.00000     0.00000     0.00000     0.00000

            7           8           9          10  
       ----------- ----------- ----------- -----------
   1       0.00000     0.00000     0.00000     0.00000
   2       0.00000     0.00000     0.00000     0.00000
   3       0.00000     0.00000     0.00000     0.00000
   4       0.00000     0.00000     0.00000     0.00000
   5       0.00000     0.00000     0.00000     0.00000
   6       0.00000     0.00000     0.00000     0.00000
   7       1.00000     0.00000     0.00000     0.00000
   8       0.00000     1.00000     0.00000     0.00000
   9       0.00000     0.00000     1.00000     0.00000
  10       0.00000     0.00000     0.00000     1.00000

                   WFN1 Final beta Correlation Function Analysis
                   ---------------------------------------------


 global array: Cb[1:10,1:10],  handle: -983 

            1           2           3           4           5           6  
       ----------- ----------- ----------- ----------- ----------- -----------
   1       1.00000     0.00000     0.00000     0.00000     0.00000     0.00000
   2       0.00000     1.00000     0.00000     0.00000     0.00000     0.00000
   3       0.00000     0.00000     1.00000     0.00000     0.00000     0.00000
   4       0.00000     0.00000     0.00000     1.00000     0.00000     0.00000
   5       0.00000     0.00000     0.00000     0.00000     0.00000     1.00000
   6       0.00000     0.00000     0.00000     0.00000     1.00000     0.00000
   7       0.00000     0.00000     0.00000     0.00000     0.00000     0.00000
   8       0.00000     0.00000     0.00000     0.00000     0.00000     0.00000
   9       0.00000     0.00000     0.00000     0.00000     0.00000     0.00000
  10       0.00000     0.00000     0.00000     0.00000     0.00000     0.00000

            7           8           9          10  
       ----------- ----------- ----------- -----------
   1       0.00000     0.00000     0.00000     0.00000
   2       0.00000     0.00000     0.00000     0.00000
   3       0.00000     0.00000     0.00000     0.00000
   4       0.00000     0.00000     0.00000     0.00000
   5       0.00000     0.00000     0.00000     0.00000
   6       0.00000     0.00000     0.00000     0.00000
   7       1.00000     0.00000     0.00000     0.00000
   8       0.00000     1.00000     0.00000     0.00000
   9       0.00000     0.00000     1.00000     0.00000
  10       0.00000     0.00000     0.00000     1.00000

                     WFN1 Final Alpha Natural Orbital Analysis
                     -----------------------------------------

 Vector    1  Occ=1.000000D+00  E=-5.972569D-01
              MO Center= -1.4D-19,  4.3D-18,  2.5D-16, r^2= 7.2D-01
   Bfn.  Coefficient  Atom+Function         Bfn.  Coefficient  Atom+Function  
  ----- ------------  ---------------      ----- ------------  ---------------
     1     -0.319326  1 H  s                  6     -0.319326  2 H  s          
     2     -0.273550  1 H  s                  7     -0.273550  2 H  s          

 Vector    2  Occ=0.000000D+00  E= 0.000000D+00
              MO Center= -5.2D-30,  5.8D-31, -5.2D-16, r^2= 2.0D+00
   Bfn.  Coefficient  Atom+Function         Bfn.  Coefficient  Atom+Function  
  ----- ------------  ---------------      ----- ------------  ---------------
     2      1.670354  1 H  s                  7     -1.670354  2 H  s          
     1      0.166622  1 H  s                  6     -0.166622  2 H  s          

 Vector    3  Occ=0.000000D+00  E= 0.000000D+00
              MO Center=  9.8D-19, -3.9D-19,  2.3D-16, r^2= 1.6D+00
   Bfn.  Coefficient  Atom+Function         Bfn.  Coefficient  Atom+Function  
  ----- ------------  ---------------      ----- ------------  ---------------
     1      0.740663  1 H  s                  6      0.740663  2 H  s          
     2     -0.675890  1 H  s                  7     -0.675890  2 H  s          
     5      0.038595  1 H  pz                10     -0.038595  2 H  pz         

 Vector    4  Occ=0.000000D+00  E= 0.000000D+00
              MO Center=  5.5D-32,  1.4D-31,  3.6D-16, r^2= 1.2D+00
   Bfn.  Coefficient  Atom+Function         Bfn.  Coefficient  Atom+Function  
  ----- ------------  ---------------      ----- ------------  ---------------
     2     -1.478938  1 H  s                  7      1.478938  2 H  s          
     1      0.887103  1 H  s                  6     -0.887103  2 H  s          
     5     -0.269489  1 H  pz                10     -0.269489  2 H  pz         

 Vector    5  Occ=0.000000D+00  E= 0.000000D+00
              MO Center= -1.5D-17, -3.6D-18,  1.6D-17, r^2= 4.2D-01
   Bfn.  Coefficient  Atom+Function         Bfn.  Coefficient  Atom+Function  
  ----- ------------  ---------------      ----- ------------  ---------------
     3     -0.590965  1 H  px                 8     -0.590965  2 H  px         
     4     -0.146721  1 H  py                 9     -0.146721  2 H  py         

 Vector    6  Occ=0.000000D+00  E= 0.000000D+00
              MO Center=  1.2D-18, -4.8D-18,  2.5D-16, r^2= 4.2D-01
   Bfn.  Coefficient  Atom+Function         Bfn.  Coefficient  Atom+Function  
  ----- ------------  ---------------      ----- ------------  ---------------
     4      0.590965  1 H  py                 9      0.590965  2 H  py         
     3     -0.146721  1 H  px                 8     -0.146721  2 H  px         

 Vector    7  Occ=0.000000D+00  E= 0.000000D+00
              MO Center=  1.3D-17,  4.4D-18, -2.2D-16, r^2= 5.6D-01
   Bfn.  Coefficient  Atom+Function         Bfn.  Coefficient  Atom+Function  
  ----- ------------  ---------------      ----- ------------  ---------------
     5     -0.650349  1 H  pz                10      0.650349  2 H  pz         
     1      0.392767  1 H  s                  6      0.392767  2 H  s          
     2     -0.192070  1 H  s                  7     -0.192070  2 H  s          

 Vector    8  Occ=0.000000D+00  E= 0.000000D+00
              MO Center= -3.6D-19,  2.1D-18, -2.8D-16, r^2= 5.2D-01
   Bfn.  Coefficient  Atom+Function         Bfn.  Coefficient  Atom+Function  
  ----- ------------  ---------------      ----- ------------  ---------------
     4     -0.863815  1 H  py                 9      0.863815  2 H  py         
     3      0.146122  1 H  px                 8     -0.146122  2 H  px         

 Vector    9  Occ=0.000000D+00  E= 0.000000D+00
              MO Center=  9.6D-19,  1.6D-19, -1.4D-17, r^2= 5.2D-01
   Bfn.  Coefficient  Atom+Function         Bfn.  Coefficient  Atom+Function  
  ----- ------------  ---------------      ----- ------------  ---------------
     3      0.863815  1 H  px                 8     -0.863815  2 H  px         
     4      0.146122  1 H  py                 9     -0.146122  2 H  py         

 Vector   10  Occ=0.000000D+00  E= 0.000000D+00
              MO Center= -6.0D-19, -2.3D-18,  5.6D-17, r^2= 5.3D-01
   Bfn.  Coefficient  Atom+Function         Bfn.  Coefficient  Atom+Function  
  ----- ------------  ---------------      ----- ------------  ---------------
     5      1.604660  1 H  pz                10      1.604660  2 H  pz         
     1      1.494332  1 H  s                  6     -1.494332  2 H  s          
     2      0.164500  1 H  s                  7     -0.164500  2 H  s          


                     WFN1 Final Beta Natural Orbital Analysis
                     ----------------------------------------

 Vector    1  Occ=1.000000D+00  E=-5.972569D-01
              MO Center= -1.4D-19,  4.3D-18,  2.5D-16, r^2= 7.2D-01
   Bfn.  Coefficient  Atom+Function         Bfn.  Coefficient  Atom+Function  
  ----- ------------  ---------------      ----- ------------  ---------------
     1     -0.319326  1 H  s                  6     -0.319326  2 H  s          
     2     -0.273550  1 H  s                  7     -0.273550  2 H  s          

 Vector    2  Occ=0.000000D+00  E= 0.000000D+00
              MO Center= -5.2D-30,  5.8D-31, -5.2D-16, r^2= 2.0D+00
   Bfn.  Coefficient  Atom+Function         Bfn.  Coefficient  Atom+Function  
  ----- ------------  ---------------      ----- ------------  ---------------
     2      1.670354  1 H  s                  7     -1.670354  2 H  s          
     1      0.166622  1 H  s                  6     -0.166622  2 H  s          

 Vector    3  Occ=0.000000D+00  E= 0.000000D+00
              MO Center=  9.8D-19, -3.9D-19,  2.3D-16, r^2= 1.6D+00
   Bfn.  Coefficient  Atom+Function         Bfn.  Coefficient  Atom+Function  
  ----- ------------  ---------------      ----- ------------  ---------------
     1      0.740663  1 H  s                  6      0.740663  2 H  s          
     2     -0.675890  1 H  s                  7     -0.675890  2 H  s          
     5      0.038595  1 H  pz                10     -0.038595  2 H  pz         

 Vector    4  Occ=0.000000D+00  E= 0.000000D+00
              MO Center=  5.5D-32,  1.4D-31,  3.6D-16, r^2= 1.2D+00
   Bfn.  Coefficient  Atom+Function         Bfn.  Coefficient  Atom+Function  
  ----- ------------  ---------------      ----- ------------  ---------------
     2     -1.478938  1 H  s                  7      1.478938  2 H  s          
     1      0.887103  1 H  s                  6     -0.887103  2 H  s          
     5     -0.269489  1 H  pz                10     -0.269489  2 H  pz         

 Vector    5  Occ=0.000000D+00  E= 0.000000D+00
              MO Center= -1.5D-17, -3.6D-18,  1.6D-17, r^2= 4.2D-01
   Bfn.  Coefficient  Atom+Function         Bfn.  Coefficient  Atom+Function  
  ----- ------------  ---------------      ----- ------------  ---------------
     3     -0.590965  1 H  px                 8     -0.590965  2 H  px         
     4     -0.146721  1 H  py                 9     -0.146721  2 H  py         

 Vector    6  Occ=0.000000D+00  E= 0.000000D+00
              MO Center=  1.2D-18, -4.8D-18,  2.5D-16, r^2= 4.2D-01
   Bfn.  Coefficient  Atom+Function         Bfn.  Coefficient  Atom+Function  
  ----- ------------  ---------------      ----- ------------  ---------------
     4      0.590965  1 H  py                 9      0.590965  2 H  py         
     3     -0.146721  1 H  px                 8     -0.146721  2 H  px         

 Vector    7  Occ=0.000000D+00  E= 0.000000D+00
              MO Center=  1.3D-17,  4.4D-18, -2.2D-16, r^2= 5.6D-01
   Bfn.  Coefficient  Atom+Function         Bfn.  Coefficient  Atom+Function  
  ----- ------------  ---------------      ----- ------------  ---------------
     5     -0.650349  1 H  pz                10      0.650349  2 H  pz         
     1      0.392767  1 H  s                  6      0.392767  2 H  s          
     2     -0.192070  1 H  s                  7     -0.192070  2 H  s          

 Vector    8  Occ=0.000000D+00  E= 0.000000D+00
              MO Center= -3.6D-19,  2.1D-18, -2.8D-16, r^2= 5.2D-01
   Bfn.  Coefficient  Atom+Function         Bfn.  Coefficient  Atom+Function  
  ----- ------------  ---------------      ----- ------------  ---------------
     4     -0.863815  1 H  py                 9      0.863815  2 H  py         
     3      0.146122  1 H  px                 8     -0.146122  2 H  px         

 Vector    9  Occ=0.000000D+00  E= 0.000000D+00
              MO Center=  9.6D-19,  1.6D-19, -1.4D-17, r^2= 5.2D-01
   Bfn.  Coefficient  Atom+Function         Bfn.  Coefficient  Atom+Function  
  ----- ------------  ---------------      ----- ------------  ---------------
     3      0.863815  1 H  px                 8     -0.863815  2 H  px         
     4      0.146122  1 H  py                 9     -0.146122  2 H  py         

 Vector   10  Occ=0.000000D+00  E= 0.000000D+00
              MO Center= -6.0D-19, -2.3D-18,  5.6D-17, r^2= 5.3D-01
   Bfn.  Coefficient  Atom+Function         Bfn.  Coefficient  Atom+Function  
  ----- ------------  ---------------      ----- ------------  ---------------
     5      1.604660  1 H  pz                10      1.604660  2 H  pz         
     1      1.494332  1 H  s                  6     -1.494332  2 H  s          
     2      0.164500  1 H  s                  7     -0.164500  2 H  s          


 Task  times  cpu:        0.5s     wall:        0.7s


                                NWChem Input Module
                                -------------------



                                NWChem WFN1 Module
                                ------------------



      Superposition of Atomic Density Guess
      -------------------------------------

 Sum of atomic energies:          -0.99646508

      Non-variational initial energy
      ------------------------------

 Total energy =      -0.847270
 1-e energy   =      -2.227930
 2-e energy   =       0.658271
 HOMO         =      -0.587130
 LUMO         =       0.177484

 iteration              energy           error          err Na          err Nb          err Ca          err Cb
 ---------              ------           -----          ------          ------          ------          ------
         1         -1.13053503        0.887881        0.000336        0.000336        0.443604        0.443604
         2         -1.13157345        0.988852        0.000040        0.000040        0.494386        0.494386
         3         -1.13177777        0.299222        0.000039        0.000039        0.149572        0.149572
         4         -1.13183513        0.299150        0.000001        0.000001        0.149574        0.149574
         5         -1.13220510        1.893198        0.000002        0.000002        0.946597        0.946597
         6         -1.13221047        1.894266        0.000000        0.000000        0.947133        0.947133
         7         -1.13254702        0.782489        0.000000        0.000000        0.391244        0.391244
         8         -1.13254753        0.782530        0.000000        0.000000        0.391265        0.391265
         9         -1.13281741        0.997582        0.000000        0.000000        0.498791        0.498791
        10         -1.13306670        0.222478        0.000000        0.000000        0.111239        0.111239
        11         -1.13328556        0.564171        0.000000        0.000000        0.282085        0.282085
        12         -1.13328673        0.564238        0.000000        0.000000        0.282119        0.282119
        13         -1.13346692        0.209711        0.000000        0.000000        0.104855        0.104855
        14         -1.13361288        0.260230        0.000000        0.000000        0.130115        0.130115
        15         -1.13376082        0.218636        0.000000        0.000000        0.109318        0.109318
        16         -1.13391176        0.270884        0.000000        0.000000        0.135442        0.135442
        17         -1.13406516        0.253802        0.000000        0.000000        0.126901        0.126901
        18         -1.13406677        0.253844        0.000000        0.000000        0.126922        0.126922
        19         -1.13422402        0.288212        0.000000        0.000000        0.144106        0.144106
        20         -1.13438259        0.278686        0.000000        0.000000        0.139343        0.139343
        21         -1.13454323        0.295652        0.000000        0.000000        0.147826        0.147826
        22         -1.13470421        0.290871        0.000000        0.000000        0.145435        0.145435
        23         -1.13486577        0.297692        0.000000        0.000000        0.148846        0.148846
        24         -1.13486704        0.297711        0.000000        0.000000        0.148855        0.148855
        25         -1.13502860        0.295794        0.000000        0.000000        0.147897        0.147897
        26         -1.13502968        0.295803        0.000000        0.000000        0.147901        0.147901
        27         -1.13519041        0.307354        0.000000        0.000000        0.153677        0.153677
        28         -1.13519152        0.307358        0.000000        0.000000        0.153679        0.153679
        29         -1.13534995        0.291999        0.000000        0.000000        0.145999        0.145999
        30         -1.13535117        0.292007        0.000001        0.000001        0.146003        0.146003
        31         -1.13550824        0.322373        0.000001        0.000001        0.161186        0.161186
        32         -1.13550940        0.322374        0.000000        0.000000        0.161187        0.161187
        33         -1.13566137        0.283597        0.000000        0.000000        0.141798        0.141798
        34         -1.13566227        0.283601        0.000001        0.000001        0.141800        0.141800
        35         -1.13581260        0.325029        0.000001        0.000001        0.162514        0.162514
        36         -1.13581356        0.325033        0.000000        0.000000        0.162516        0.162516
        37         -1.13595687        0.280091        0.000000        0.000000        0.140045        0.140045
        38         -1.13595794        0.280098        0.000001        0.000001        0.140048        0.140048
        39         -1.13609815        0.307063        0.000001        0.000001        0.153531        0.153531
        40         -1.13609924        0.307067        0.000000        0.000000        0.153533        0.153533
        41         -1.13623224        0.285807        0.000001        0.000001        0.142903        0.142903
        42         -1.13623344        0.285816        0.000001        0.000001        0.142907        0.142907
        43         -1.13636114        0.295959        0.000001        0.000001        0.147979        0.147979
        44         -1.13636235        0.295955        0.000001        0.000001        0.147977        0.147977
        45         -1.13648303        0.283245        0.000001        0.000001        0.141622        0.141622
        46         -1.13648434        0.283254        0.000001        0.000001        0.141626        0.141626
        47         -1.13659866        0.285459        0.000001        0.000001        0.142729        0.142729
        48         -1.13659998        0.285488        0.000001        0.000001        0.142743        0.142743
        49         -1.13670721        0.275769        0.000001        0.000001        0.137884        0.137884
        50         -1.13670862        0.275709        0.000001        0.000001        0.137854        0.137854
        51         -1.13680908        0.273714        0.000001        0.000001        0.136856        0.136856
        52         -1.13681049        0.273630        0.000001        0.000001        0.136815        0.136815
        53         -1.13690392        0.264828        0.000001        0.000001        0.132413        0.132413
        54         -1.13690541        0.264218        0.000001        0.000001        0.132108        0.132108
        55         -1.13699208        0.259884        0.000001        0.000001        0.129941        0.129941
        56         -1.13699357        0.259883        0.000001        0.000001        0.129941        0.129941
        57         -1.13707346        0.251291        0.000001        0.000001        0.125645        0.125645
        58         -1.13707501        0.256965        0.000001        0.000001        0.128482        0.128482
        59         -1.13714846        0.251733        0.000001        0.000001        0.125865        0.125865
        60         -1.13715000        0.280378        0.000001        0.000001        0.140188        0.140188
        61         -1.13721712        0.277664        0.000001        0.000001        0.138831        0.138831
        62         -1.13721871        0.330228        0.000001        0.000001        0.165113        0.165113
        63         -1.13727989        0.344413        0.000001        0.000001        0.172206        0.172206
        64         -1.13728147        0.720505        0.000001        0.000001        0.360252        0.360252
        65         -1.13733693        0.849993        0.000001        0.000001        0.424996        0.424996
        66         -1.13733854        0.965657        0.000001        0.000001        0.482828        0.482828
        67         -1.13738869        0.941980        0.000001        0.000001        0.470989        0.470989
        68         -1.13739028        0.569853        0.000001        0.000001        0.284926        0.284926
        69         -1.13743540        0.488633        0.000001        0.000001        0.244316        0.244316
        70         -1.13743700        0.430007        0.000001        0.000001        0.215002        0.215002
        71         -1.13747750        0.360185        0.000001        0.000001        0.180092        0.180092
        72         -1.13747907        0.204583        0.000001        0.000001        0.102291        0.102291
        73         -1.13751525        0.196464        0.000001        0.000001        0.098231        0.098231
        74         -1.13751683        0.193887        0.000001        0.000001        0.096942        0.096942
        75         -1.13754907        0.187690        0.000001        0.000001        0.093844        0.093844
        76         -1.13755062        0.190930        0.000001        0.000001        0.095464        0.095464
        77         -1.13757924        0.183132        0.000001        0.000001        0.091565        0.091565
        78         -1.13758078        0.182039        0.000001        0.000001        0.091018        0.091018
        79         -1.13760613        0.176572        0.000001        0.000001        0.088285        0.088285
        80         -1.13760764        0.175397        0.000001        0.000001        0.087698        0.087698
        81         -1.13763001        0.168583        0.000001        0.000001        0.084291        0.084291
        82         -1.13763149        0.168329        0.000001        0.000001        0.084164        0.084164
        83         -1.13765119        0.163335        0.000001        0.000001        0.081667        0.081667
        84         -1.13765264        0.172278        0.000001        0.000001        0.086138        0.086138
        85         -1.13766993        0.167439        0.000001        0.000001        0.083719        0.083719
        86         -1.13767135        0.167834        0.000001        0.000001        0.083916        0.083916
        87         -1.13768650        0.165187        0.000001        0.000001        0.082593        0.082593
        88         -1.13768788        0.165153        0.000001        0.000001        0.082576        0.082576
        89         -1.13770111        0.161574        0.000001        0.000001        0.080787        0.080787
        90         -1.13770246        0.161366        0.000001        0.000001        0.080682        0.080682
        91         -1.13771400        0.159986        0.000001        0.000001        0.079992        0.079992
        92         -1.13771530        0.164974        0.000001        0.000001        0.082487        0.082487
        93         -1.13772534        0.156409        0.000001        0.000001        0.078204        0.078204
        94         -1.13772661        0.139240        0.000001        0.000001        0.069619        0.069619
        95         -1.13773533        0.135945        0.000001        0.000001        0.067972        0.067972
        96         -1.13773655        0.260049        0.000001        0.000001        0.130024        0.130024
        97         -1.13774411        0.216546        0.000001        0.000001        0.108273        0.108273
        98         -1.13774529        0.188887        0.000001        0.000001        0.094443        0.094443
        99         -1.13775184        0.166980        0.000001        0.000001        0.083489        0.083489
       100         -1.13775297        0.180919        0.000001        0.000001        0.090459        0.090459
       101         -1.13775862        0.156052        0.000001        0.000001        0.078025        0.078025
       102         -1.13775971        0.158571        0.000001        0.000001        0.079285        0.079285
       103         -1.13776459        0.140531        0.000001        0.000001        0.070265        0.070265
       104         -1.13776564        0.147182        0.000000        0.000000        0.073590        0.073590
       105         -1.13776984        0.129901        0.000000        0.000000        0.064950        0.064950
       106         -1.13777085        0.129892        0.000001        0.000001        0.064945        0.064945
       107         -1.13777447        0.119458        0.000001        0.000001        0.059728        0.059728
       108         -1.13777543        0.122641        0.000000        0.000000        0.061320        0.061320
       109         -1.13777854        0.112651        0.000000        0.000000        0.056325        0.056325
       110         -1.13777947        0.112456        0.000001        0.000001        0.056227        0.056227
       111         -1.13778214        0.106941        0.000001        0.000001        0.053470        0.053470
       112         -1.13778302        0.107507        0.000000        0.000000        0.053753        0.053753
       113         -1.13778531        0.101912        0.000000        0.000000        0.050956        0.050956
       114         -1.13778615        0.101849        0.000000        0.000000        0.050924        0.050924
       115         -1.13778812        0.099111        0.000000        0.000000        0.049555        0.049555
       116         -1.13778892        0.100828        0.000000        0.000000        0.050413        0.050413
       117         -1.13779060        0.097232        0.000000        0.000000        0.048616        0.048616
       118         -1.13779137        0.110760        0.000000        0.000000        0.055380        0.055380
       119         -1.13779281        0.109885        0.000000        0.000000        0.054942        0.054942
       120         -1.13779354        0.110450        0.000000        0.000000        0.055224        0.055224
       121         -1.13779477        0.115598        0.000000        0.000000        0.057799        0.057799
       122         -1.13779546        0.115574        0.000000        0.000000        0.057787        0.057787
       123         -1.13779651        0.133350        0.000000        0.000000        0.066674        0.066674
       124         -1.13779718        0.133392        0.000000        0.000000        0.066696        0.066696
       125         -1.13779807        0.166627        0.000000        0.000000        0.083313        0.083313
       126         -1.13779870        0.166808        0.000000        0.000000        0.083404        0.083404
       127         -1.13779947        0.229142        0.000000        0.000000        0.114571        0.114571
       128         -1.13780007        0.229492        0.000000        0.000000        0.114746        0.114746
       129         -1.13780072        0.327362        0.000000        0.000000        0.163681        0.163681
       130         -1.13780129        0.319558        0.000000        0.000000        0.159779        0.159779
       131         -1.13780185        0.449095        0.000000        0.000000        0.224547        0.224547
       132         -1.13780238        0.419375        0.000000        0.000000        0.209687        0.209687
       133         -1.13780286        0.531623        0.000000        0.000000        0.265811        0.265811
       134         -1.13780337        0.134917        0.000000        0.000000        0.067458        0.067458
       135         -1.13780378        0.128751        0.000000        0.000000        0.064375        0.064375
       136         -1.13780426        0.087204        0.000000        0.000000        0.043602        0.043602
       137         -1.13780461        0.084240        0.000000        0.000000        0.042120        0.042120
       138         -1.13780490        0.081841        0.000000        0.000000        0.040920        0.040920
       139         -1.13780514        0.079160        0.000000        0.000000        0.039580        0.039580
       140         -1.13780535        0.076925        0.000000        0.000000        0.038462        0.038462
       141         -1.13780552        0.074513        0.000000        0.000000        0.037256        0.037256
       142         -1.13780567        0.072462        0.000000        0.000000        0.036231        0.036231
       143         -1.13780579        0.070310        0.000000        0.000000        0.035155        0.035155
       144         -1.13780590        0.068454        0.000000        0.000000        0.034227        0.034227
       145         -1.13780598        0.066548        0.000000        0.000000        0.033274        0.033274
       146         -1.13780606        0.064889        0.000000        0.000000        0.032444        0.032444
       147         -1.13780612        0.063212        0.000000        0.000000        0.031606        0.031606
       148         -1.13780617        0.061742        0.000000        0.000000        0.030871        0.030871
       149         -1.13780621        0.060275        0.000000        0.000000        0.030137        0.030137
       150         -1.13780625        0.058981        0.000000        0.000000        0.029490        0.029490
       151         -1.13780628        0.057702        0.000000        0.000000        0.028851        0.028851
       152         -1.13780631        0.056567        0.000000        0.000000        0.028283        0.028283
       153         -1.13780633        0.055454        0.000000        0.000000        0.027727        0.027727
       154         -1.13780634        0.054461        0.000000        0.000000        0.027230        0.027230
       155         -1.13780636        0.053492        0.000000        0.000000        0.026746        0.026746
       156         -1.13780637        0.052624        0.000000        0.000000        0.026312        0.026312
       157         -1.13780638        0.051780        0.000000        0.000000        0.025890        0.025890
       158         -1.13780639        0.051020        0.000000        0.000000        0.025510        0.025510
       159         -1.13780640        0.050284        0.000000        0.000000        0.025142        0.025142
       160         -1.13780641        0.049617        0.000000        0.000000        0.024808        0.024808
       161         -1.13780641        0.048973        0.000000        0.000000        0.024486        0.024486
       162         -1.13780642        0.048387        0.000000        0.000000        0.024193        0.024193
       163         -1.13780642        0.047821        0.000000        0.000000        0.023910        0.023910
       164         -1.13780642        0.047304        0.000000        0.000000        0.023652        0.023652
       165         -1.13780643        0.046806        0.000000        0.000000        0.023403        0.023403
       166         -1.13780643        0.046350        0.000000        0.000000        0.023175        0.023175
       167         -1.13780643        0.045909        0.000000        0.000000        0.022954        0.022954
       168         -1.13780643        0.045504        0.000000        0.000000        0.022752        0.022752
       169         -1.13780643        0.045113        0.000000        0.000000        0.022556        0.022556
       170         -1.13780643        0.044753        0.000000        0.000000        0.022376        0.022376
       171         -1.13780643        0.044405        0.000000        0.000000        0.022202        0.022202
       172         -1.13780643        0.044084        0.000000        0.000000        0.022042        0.022042
       173         -1.13780644        0.043774        0.000000        0.000000        0.021887        0.021887
       174         -1.13780644        0.043486        0.000000        0.000000        0.021743        0.021743
       175         -1.13780644        0.043208        0.000000        0.000000        0.021604        0.021604
       176         -1.13780644        0.042950        0.000000        0.000000        0.021475        0.021475
       177         -1.13780644        0.042700        0.000000        0.000000        0.021350        0.021350
       178         -1.13780644        0.042468        0.000000        0.000000        0.021234        0.021234
       179         -1.13780644        0.042243        0.000000        0.000000        0.021121        0.021121
       180         -1.13780644        0.042038        0.000000        0.000000        0.021019        0.021019
       181         -1.13780644        0.041826        0.000000        0.000000        0.020913        0.020913
       182         -1.13780644        0.041651        0.000000        0.000000        0.020825        0.020825
       183         -1.13780644        0.041451        0.000000        0.000000        0.020725        0.020725
       184         -1.13780644        0.041295        0.000000        0.000000        0.020647        0.020647
       185         -1.13780644        0.041120        0.000000        0.000000        0.020560        0.020560
       186         -1.13780644        0.040966        0.000000        0.000000        0.020483        0.020483
       187         -1.13780644        0.040823        0.000000        0.000000        0.020411        0.020411
       188         -1.13780644        0.040671        0.000000        0.000000        0.020335        0.020335
       189         -1.13780644        0.040550        0.000000        0.000000        0.020275        0.020275
       190         -1.13780644        0.040406        0.000000        0.000000        0.020203        0.020203
       191         -1.13780644        0.040291        0.000000        0.000000        0.020145        0.020145
       192         -1.13780644        0.040169        0.000000        0.000000        0.020084        0.020084
       193         -1.13780644        0.040044        0.000000        0.000000        0.020022        0.020022
       194         -1.13780644        0.039954        0.000000        0.000000        0.019977        0.019977
       195         -1.13780644        0.039860        0.000000        0.000000        0.019930        0.019930
       196         -1.13780644        0.039721        0.000000        0.000000        0.019860        0.019860
       197         -1.13780644        0.039665        0.000000        0.000000        0.019833        0.019833
       198         -1.13780644        0.039592        0.000000        0.000000        0.019796        0.019796
       199         -1.13780644        0.039458        0.000000        0.000000        0.019729        0.019729
       200         -1.13780644        0.039387        0.000000        0.000000        0.019693        0.019693
       201         -1.13780644        0.039353        0.000000        0.000000        0.019676        0.019676
       202         -1.13780644        0.039255        0.000000        0.000000        0.019627        0.019627
       203         -1.13780644        0.039126        0.000000        0.000000        0.019563        0.019563
       204         -1.13780644        0.039138        0.000000        0.000000        0.019569        0.019569
       205         -1.13780644        0.039142        0.000000        0.000000        0.019571        0.019571
       206         -1.13780644        0.038718        0.000000        0.000000        0.019359        0.019359
       207         -1.13780644        0.039118        0.000000        0.000000        0.019559        0.019559
       208         -1.13780644        0.000004        0.000000        0.000000        0.000002        0.000002
       209         -1.13780644        0.000000        0.000000        0.000000        0.000000        0.000000

 Reached Convergence

 WFN1                     :
 --------------------------
 Total WFN1 energy =          -1.1378064388
 1-Electron energy =          -2.4243478235
 2-Electron energy =           0.6361878699
 Entropy energy    =          -0.0720352882
 Nuclear energy    =           0.7223888030

 conventional Hartree-Fock:
 --------------------------
 Total SCF energy  =          -1.0913010821
 2-Electron energy =           0.6826932266

                WFN1 Final Natural orbital energies and occupations
                ---------------------------------------------------

              Alpha       Beta            Alpha       Beta  
            --------    --------        --------    --------
       1     -0.5677     -0.5677          0.9321      0.9321
       2     -0.0083     -0.0083          0.0679      0.0679
       3      0.0000      0.0000          0.0000      0.0000
       4      0.0000      0.0000          0.0000      0.0000
       5      0.0000      0.0000          0.0000      0.0000
       6      0.0000      0.0000          0.0000      0.0000
       7      0.0000      0.0000          0.0000      0.0000
       8      0.0000      0.0000          0.0000      0.0000
       9      0.0000      0.0000          0.0000      0.0000
      10      0.0000      0.0000          0.0000      0.0000

             WFN1 Final Correlation function energies and occupations
             --------------------------------------------------------

              Alpha       Beta            Alpha       Beta  
            --------    --------        --------    --------
       1     -0.3656     -0.3656          1.0000      1.0000
       2      0.0016      0.0016          0.0000      0.0000
       3      0.5471      0.5471          0.0000      0.0000
       4      1.1055      1.1055          0.0000      0.0000
       5      1.9367      1.9367          0.0000      0.0000
       6      2.0363      2.0363          0.0000      0.0000
       7      2.1601      2.1601          0.0000      0.0000
       8      2.2910      2.2910          0.0000      0.0000
       9      2.5697      2.5697          0.0000      0.0000
      10      4.0736      4.0736          0.0000      0.0000

                WFN1 Final alpha-alpha 2-matrix occupation numbers
                --------------------------------------------------


 global array: g_momo1[1:10,1:10],  handle: -994 

            1           2           3           4           5           6  
       ----------- ----------- ----------- ----------- ----------- -----------
   1       0.00000     0.00000     0.00000     0.00000    -0.00000     0.00000
   2       0.00000     0.00000     0.00000     0.00000     0.00000    -0.00000
   3       0.00000     0.00000     0.00000     0.00000     0.00000     0.00000
   4       0.00000     0.00000     0.00000     0.00000     0.00000     0.00000
   5      -0.00000     0.00000     0.00000     0.00000     0.00000     0.00000
   6       0.00000    -0.00000     0.00000     0.00000     0.00000     0.00000
   7       0.00000     0.00000     0.00000     0.00000     0.00000     0.00000
   8       0.00000    -0.00000     0.00000     0.00000     0.00000     0.00000
   9       0.00000     0.00000     0.00000     0.00000     0.00000     0.00000
  10       0.00000    -0.00000     0.00000     0.00000     0.00000     0.00000

            7           8           9          10  
       ----------- ----------- ----------- -----------
   1       0.00000     0.00000     0.00000     0.00000
   2       0.00000    -0.00000     0.00000    -0.00000
   3       0.00000     0.00000     0.00000     0.00000
   4       0.00000     0.00000     0.00000     0.00000
   5       0.00000     0.00000     0.00000     0.00000
   6       0.00000     0.00000     0.00000     0.00000
   7       0.00000     0.00000     0.00000    -0.00000
   8       0.00000     0.00000     0.00000     0.00000
   9       0.00000     0.00000     0.00000     0.00000
  10      -0.00000     0.00000     0.00000     0.00000

                 WFN1 Final beta-beta 2-matrix occupation numbers
                 ------------------------------------------------


 global array: g_momo2[1:10,1:10],  handle: -993 

            1           2           3           4           5           6  
       ----------- ----------- ----------- ----------- ----------- -----------
   1       0.00000     0.00000     0.00000     0.00000    -0.00000     0.00000
   2       0.00000     0.00000     0.00000     0.00000     0.00000    -0.00000
   3       0.00000     0.00000     0.00000     0.00000     0.00000     0.00000
   4       0.00000     0.00000     0.00000     0.00000     0.00000     0.00000
   5      -0.00000     0.00000     0.00000     0.00000     0.00000     0.00000
   6       0.00000    -0.00000     0.00000     0.00000     0.00000     0.00000
   7       0.00000     0.00000     0.00000     0.00000     0.00000     0.00000
   8       0.00000    -0.00000     0.00000     0.00000     0.00000     0.00000
   9       0.00000     0.00000     0.00000     0.00000     0.00000     0.00000
  10       0.00000    -0.00000     0.00000     0.00000     0.00000     0.00000

            7           8           9          10  
       ----------- ----------- ----------- -----------
   1       0.00000     0.00000     0.00000     0.00000
   2       0.00000    -0.00000     0.00000    -0.00000
   3       0.00000     0.00000     0.00000     0.00000
   4       0.00000     0.00000     0.00000     0.00000
   5       0.00000     0.00000     0.00000     0.00000
   6       0.00000     0.00000     0.00000     0.00000
   7       0.00000     0.00000     0.00000    -0.00000
   8       0.00000     0.00000     0.00000     0.00000
   9       0.00000     0.00000     0.00000     0.00000
  10      -0.00000     0.00000     0.00000     0.00000

                  WFN1 Final alpha Correlation Function Analysis
                  ----------------------------------------------


 global array: Ca[1:10,1:10],  handle: -984 

            1           2           3           4           5           6  
       ----------- ----------- ----------- ----------- ----------- -----------
   1       0.96543    -0.26067     0.00000     0.00000    -0.00000     0.00000
   2       0.26067     0.96543     0.00000     0.00000    -0.00000     0.00000
   3      -0.00000    -0.00000     1.00000    -0.00000     0.00000    -0.00000
   4      -0.00000     0.00000     0.00000     1.00000    -0.00000     0.00000
   5       0.00000     0.00000    -0.00000     0.00000     0.00000     0.00000
   6       0.00000    -0.00000    -0.00000     0.00000     1.00000     0.00000
   7      -0.00000     0.00000     0.00000    -0.00000    -0.00000     1.00000
   8       0.00000    -0.00000     0.00000     0.00000    -0.00000    -0.00000
   9      -0.00000     0.00000    -0.00000     0.00000    -0.00000     0.00000
  10       0.00000    -0.00000     0.00000     0.00000    -0.00000     0.00000

            7           8           9          10  
       ----------- ----------- ----------- -----------
   1       0.00000    -0.00000    -0.00000    -0.00000
   2      -0.00000    -0.00000    -0.00000    -0.00000
   3       0.00000     0.00000    -0.00000    -0.00000
   4      -0.00000    -0.00000    -0.00000    -0.00000
   5       0.00000     1.00000    -0.00000    -0.00000
   6       0.00000    -0.00000     0.00000     0.00000
   7      -0.00000    -0.00000     0.00000    -0.00000
   8       0.00000     0.00000     1.00000    -0.00000
   9       1.00000    -0.00000    -0.00000    -0.00000
  10       0.00000     0.00000     0.00000     1.00000

                   WFN1 Final beta Correlation Function Analysis
                   ---------------------------------------------


 global array: Cb[1:10,1:10],  handle: -983 

            1           2           3           4           5           6  
       ----------- ----------- ----------- ----------- ----------- -----------
   1       0.96543    -0.26067     0.00000     0.00000    -0.00000     0.00000
   2       0.26067     0.96543     0.00000     0.00000    -0.00000     0.00000
   3      -0.00000    -0.00000     1.00000    -0.00000     0.00000    -0.00000
   4      -0.00000     0.00000     0.00000     1.00000    -0.00000     0.00000
   5       0.00000     0.00000    -0.00000     0.00000     0.00000     0.00000
   6       0.00000    -0.00000    -0.00000     0.00000     1.00000     0.00000
   7      -0.00000     0.00000     0.00000    -0.00000    -0.00000     1.00000
   8       0.00000    -0.00000     0.00000     0.00000    -0.00000    -0.00000
   9      -0.00000     0.00000    -0.00000     0.00000    -0.00000     0.00000
  10       0.00000    -0.00000     0.00000     0.00000    -0.00000     0.00000

            7           8           9          10  
       ----------- ----------- ----------- -----------
   1       0.00000    -0.00000    -0.00000    -0.00000
   2      -0.00000    -0.00000    -0.00000    -0.00000
   3       0.00000     0.00000    -0.00000    -0.00000
   4      -0.00000    -0.00000    -0.00000    -0.00000
   5       0.00000     1.00000    -0.00000    -0.00000
   6       0.00000    -0.00000     0.00000     0.00000
   7      -0.00000    -0.00000     0.00000    -0.00000
   8       0.00000     0.00000     1.00000    -0.00000
   9       1.00000    -0.00000    -0.00000    -0.00000
  10       0.00000     0.00000     0.00000     1.00000

                     WFN1 Final Alpha Natural Orbital Analysis
                     -----------------------------------------

 Vector    1  Occ=9.320510D-01  E=-5.676934D-01
              MO Center=  1.8D-09, -6.2D-10,  2.2D-06, r^2= 7.1D-01
   Bfn.  Coefficient  Atom+Function         Bfn.  Coefficient  Atom+Function  
  ----- ------------  ---------------      ----- ------------  ---------------
     1     -0.323977  1 H  s                  6     -0.323660  2 H  s          
     2     -0.269243  1 H  s                  7     -0.269210  2 H  s          

 Vector    2  Occ=6.794904D-02  E=-8.292677D-03
              MO Center= -2.9D-07,  1.1D-07,  5.7D-07, r^2= 1.9D+00
   Bfn.  Coefficient  Atom+Function         Bfn.  Coefficient  Atom+Function  
  ----- ------------  ---------------      ----- ------------  ---------------
     2      1.638068  1 H  s                  7     -1.638068  2 H  s          
     1      0.182864  1 H  s                  6     -0.182865  2 H  s          

 Vector    3  Occ=1.440270D-22  E= 5.789770D-23
              MO Center= -1.0D-03, -5.7D-04,  1.1D-03, r^2= 1.5D+00
   Bfn.  Coefficient  Atom+Function         Bfn.  Coefficient  Atom+Function  
  ----- ------------  ---------------      ----- ------------  ---------------
     6      0.709565  2 H  s                  1      0.683191  1 H  s          
     2     -0.652511  1 H  s                  7     -0.649832  2 H  s          
     4     -0.129177  1 H  py                 8     -0.128013  2 H  px         
    10     -0.098328  2 H  pz                 9      0.090256  2 H  py         
     3      0.079350  1 H  px                 5      0.070223  1 H  pz         

 Vector    4  Occ=9.671311D-22  E= 8.649854D-22
              MO Center= -6.4D-02, -7.7D-03, -7.9D-02, r^2= 1.2D+00
   Bfn.  Coefficient  Atom+Function         Bfn.  Coefficient  Atom+Function  
  ----- ------------  ---------------      ----- ------------  ---------------
     2     -1.486583  1 H  s                  7      1.434139  2 H  s          
     1      0.882820  1 H  s                  6     -0.807562  2 H  s          
     5     -0.297329  1 H  pz                 3     -0.265251  1 H  px         
    10     -0.235308  2 H  pz                 8      0.128066  2 H  px         
     9      0.062018  2 H  py         

 Vector    5  Occ=7.478492D-30  E= 1.495106D-29
              MO Center=  6.0D-02,  1.3D-02, -1.3D-01, r^2= 5.5D-01
   Bfn.  Coefficient  Atom+Function         Bfn.  Coefficient  Atom+Function  
  ----- ------------  ---------------      ----- ------------  ---------------
     3     -0.931720  1 H  px                 7     -0.491699  2 H  s          
     8      0.476428  2 H  px                 9      0.331351  2 H  py         
     2      0.322415  1 H  s                  6      0.293132  2 H  s          
    10      0.241192  2 H  pz                 1     -0.048618  1 H  s          
     5      0.035295  1 H  pz         

 Vector    6  Occ=2.626797D-31  E= 4.330634D-31
              MO Center=  4.3D-03, -7.8D-03,  7.6D-02, r^2= 4.8D-01
   Bfn.  Coefficient  Atom+Function         Bfn.  Coefficient  Atom+Function  
  ----- ------------  ---------------      ----- ------------  ---------------
     8      0.738664  2 H  px                 4      0.483168  1 H  py         
     6      0.419521  2 H  s                  5     -0.383782  1 H  pz         
     3      0.214950  1 H  px                 2     -0.157051  1 H  s          
     9     -0.135600  2 H  py                 7     -0.113731  2 H  s          
    10     -0.106219  2 H  pz                 1     -0.042808  1 H  s          

 Vector    7  Occ=2.188925D-34  E= 3.811228D-34
              MO Center= -9.3D-04,  1.1D-02,  1.0D-01, r^2= 5.0D-01
   Bfn.  Coefficient  Atom+Function         Bfn.  Coefficient  Atom+Function  
  ----- ------------  ---------------      ----- ------------  ---------------
    10     -0.589094  2 H  pz                 9      0.500230  2 H  py         
     1     -0.429864  1 H  s                  4      0.370886  1 H  py         
     5      0.288881  1 H  pz                 7      0.196854  2 H  s          
     6     -0.176848  2 H  s                  2      0.130661  1 H  s          
     8     -0.098403  2 H  px                 3      0.095249  1 H  px         

 Vector    8  Occ=2.539490D-24  E= 5.751675D-24
              MO Center= -3.6D-03,  1.9D-02, -2.9D-02, r^2= 5.1D-01
   Bfn.  Coefficient  Atom+Function         Bfn.  Coefficient  Atom+Function  
  ----- ------------  ---------------      ----- ------------  ---------------
     9      0.799580  2 H  py                 4     -0.756480  1 H  py         
     5     -0.479935  1 H  pz                 1     -0.308512  1 H  s          
     6      0.309710  2 H  s                  3      0.268782  1 H  px         
    10     -0.236390  2 H  pz                 8      0.142452  2 H  px         
     7      0.099636  2 H  s                  2     -0.039302  1 H  s          

 Vector    9  Occ=2.718268D-34  E= 5.058147D-34
              MO Center=  4.1D-03, -8.2D-03,  5.2D-02, r^2= 5.0D-01
   Bfn.  Coefficient  Atom+Function         Bfn.  Coefficient  Atom+Function  
  ----- ------------  ---------------      ----- ------------  ---------------
     8      0.536903  2 H  px                10     -0.426321  2 H  pz         
     5      0.419696  1 H  pz                 4     -0.417326  1 H  py         
     1     -0.270188  1 H  s                  9     -0.265276  2 H  py         
     6     -0.263278  2 H  s                  3     -0.212252  1 H  px         
     2      0.134792  1 H  s                  7      0.134510  2 H  s          

 Vector   10  Occ=4.625617D-14  E= 1.725432D-13
              MO Center=  1.7D-03, -1.9D-02,  1.3D-02, r^2= 5.1D-01
   Bfn.  Coefficient  Atom+Function         Bfn.  Coefficient  Atom+Function  
  ----- ------------  ---------------      ----- ------------  ---------------
     5      1.529697  1 H  pz                10      1.533830  2 H  pz         
     1      1.452886  1 H  s                  6     -1.449237  2 H  s          
     9      0.195425  2 H  py                 3      0.144802  1 H  px         
     7     -0.129214  2 H  s                  2      0.126841  1 H  s          
     8      0.121067  2 H  px                 4     -0.062785  1 H  py         


                     WFN1 Final Beta Natural Orbital Analysis
                     ----------------------------------------

 Vector    1  Occ=9.320510D-01  E=-5.676934D-01
              MO Center=  1.8D-09, -6.2D-10,  2.2D-06, r^2= 7.1D-01
   Bfn.  Coefficient  Atom+Function         Bfn.  Coefficient  Atom+Function  
  ----- ------------  ---------------      ----- ------------  ---------------
     1     -0.323977  1 H  s                  6     -0.323660  2 H  s          
     2     -0.269243  1 H  s                  7     -0.269210  2 H  s          

 Vector    2  Occ=6.794904D-02  E=-8.292677D-03
              MO Center= -2.9D-07,  1.1D-07,  5.7D-07, r^2= 1.9D+00
   Bfn.  Coefficient  Atom+Function         Bfn.  Coefficient  Atom+Function  
  ----- ------------  ---------------      ----- ------------  ---------------
     2      1.638068  1 H  s                  7     -1.638068  2 H  s          
     1      0.182864  1 H  s                  6     -0.182865  2 H  s          

 Vector    3  Occ=1.440270D-22  E= 5.789770D-23
              MO Center= -1.0D-03, -5.7D-04,  1.1D-03, r^2= 1.5D+00
   Bfn.  Coefficient  Atom+Function         Bfn.  Coefficient  Atom+Function  
  ----- ------------  ---------------      ----- ------------  ---------------
     6      0.709565  2 H  s                  1      0.683191  1 H  s          
     2     -0.652511  1 H  s                  7     -0.649832  2 H  s          
     4     -0.129177  1 H  py                 8     -0.128013  2 H  px         
    10     -0.098328  2 H  pz                 9      0.090256  2 H  py         
     3      0.079350  1 H  px                 5      0.070223  1 H  pz         

 Vector    4  Occ=9.671311D-22  E= 8.649854D-22
              MO Center= -6.4D-02, -7.7D-03, -7.9D-02, r^2= 1.2D+00
   Bfn.  Coefficient  Atom+Function         Bfn.  Coefficient  Atom+Function  
  ----- ------------  ---------------      ----- ------------  ---------------
     2     -1.486583  1 H  s                  7      1.434139  2 H  s          
     1      0.882820  1 H  s                  6     -0.807562  2 H  s          
     5     -0.297329  1 H  pz                 3     -0.265251  1 H  px         
    10     -0.235308  2 H  pz                 8      0.128066  2 H  px         
     9      0.062018  2 H  py         

 Vector    5  Occ=7.478492D-30  E= 1.495106D-29
              MO Center=  6.0D-02,  1.3D-02, -1.3D-01, r^2= 5.5D-01
   Bfn.  Coefficient  Atom+Function         Bfn.  Coefficient  Atom+Function  
  ----- ------------  ---------------      ----- ------------  ---------------
     3     -0.931720  1 H  px                 7     -0.491699  2 H  s          
     8      0.476428  2 H  px                 9      0.331351  2 H  py         
     2      0.322415  1 H  s                  6      0.293132  2 H  s          
    10      0.241192  2 H  pz                 1     -0.048618  1 H  s          
     5      0.035295  1 H  pz         

 Vector    6  Occ=2.626797D-31  E= 4.330634D-31
              MO Center=  4.3D-03, -7.8D-03,  7.6D-02, r^2= 4.8D-01
   Bfn.  Coefficient  Atom+Function         Bfn.  Coefficient  Atom+Function  
  ----- ------------  ---------------      ----- ------------  ---------------
     8      0.738664  2 H  px                 4      0.483168  1 H  py         
     6      0.419521  2 H  s                  5     -0.383782  1 H  pz         
     3      0.214950  1 H  px                 2     -0.157051  1 H  s          
     9     -0.135600  2 H  py                 7     -0.113731  2 H  s          
    10     -0.106219  2 H  pz                 1     -0.042808  1 H  s          

 Vector    7  Occ=2.188925D-34  E= 3.811228D-34
              MO Center= -9.3D-04,  1.1D-02,  1.0D-01, r^2= 5.0D-01
   Bfn.  Coefficient  Atom+Function         Bfn.  Coefficient  Atom+Function  
  ----- ------------  ---------------      ----- ------------  ---------------
    10     -0.589094  2 H  pz                 9      0.500230  2 H  py         
     1     -0.429864  1 H  s                  4      0.370886  1 H  py         
     5      0.288881  1 H  pz                 7      0.196854  2 H  s          
     6     -0.176848  2 H  s                  2      0.130661  1 H  s          
     8     -0.098403  2 H  px                 3      0.095249  1 H  px         

 Vector    8  Occ=2.539490D-24  E= 5.751675D-24
              MO Center= -3.6D-03,  1.9D-02, -2.9D-02, r^2= 5.1D-01
   Bfn.  Coefficient  Atom+Function         Bfn.  Coefficient  Atom+Function  
  ----- ------------  ---------------      ----- ------------  ---------------
     9      0.799580  2 H  py                 4     -0.756480  1 H  py         
     5     -0.479935  1 H  pz                 1     -0.308512  1 H  s          
     6      0.309710  2 H  s                  3      0.268782  1 H  px         
    10     -0.236390  2 H  pz                 8      0.142452  2 H  px         
     7      0.099636  2 H  s                  2     -0.039302  1 H  s          

 Vector    9  Occ=2.718268D-34  E= 5.058147D-34
              MO Center=  4.1D-03, -8.2D-03,  5.2D-02, r^2= 5.0D-01
   Bfn.  Coefficient  Atom+Function         Bfn.  Coefficient  Atom+Function  
  ----- ------------  ---------------      ----- ------------  ---------------
     8      0.536903  2 H  px                10     -0.426321  2 H  pz         
     5      0.419696  1 H  pz                 4     -0.417326  1 H  py         
     1     -0.270188  1 H  s                  9     -0.265276  2 H  py         
     6     -0.263278  2 H  s                  3     -0.212252  1 H  px         
     2      0.134792  1 H  s                  7      0.134510  2 H  s          

 Vector   10  Occ=4.625617D-14  E= 1.725432D-13
              MO Center=  1.7D-03, -1.9D-02,  1.3D-02, r^2= 5.1D-01
   Bfn.  Coefficient  Atom+Function         Bfn.  Coefficient  Atom+Function  
  ----- ------------  ---------------      ----- ------------  ---------------
     5      1.529697  1 H  pz                10      1.533830  2 H  pz         
     1      1.452886  1 H  s                  6     -1.449237  2 H  s          
     9      0.195425  2 H  py                 3      0.144802  1 H  px         
     7     -0.129214  2 H  s                  2      0.126841  1 H  s          
     8      0.121067  2 H  px                 4     -0.062785  1 H  py         


 Task  times  cpu:       30.8s     wall:       38.5s


                                NWChem Input Module
                                -------------------


 Summary of allocated global arrays
-----------------------------------
  No active global arrays



                         GA Statistics for process    0
                         ------------------------------

       create   destroy   get      put      acc     scatter   gather  read&inc
calls:   90       90     8.89e+06 1.44e+04 5.10e+06    0        0       22     
number of processes/call 1.00e+00 1.00e+00 1.00e+00 0.00e+00 0.00e+00
bytes total:             5.74e+09 1.07e+07 4.08e+09 0.00e+00 0.00e+00 1.76e+02
bytes remote:            0.00e+00 0.00e+00 0.00e+00 0.00e+00 0.00e+00 0.00e+00
Max memory consumed for GA by this process: 27200 bytes

MA_summarize_allocated_blocks: starting scan ...
MA_summarize_allocated_blocks: scan completed: 0 heap blocks, 0 stack blocks
MA usage statistics:

	allocation statistics:
					      heap	     stack
					      ----	     -----
	current number of blocks	         0	         0
	maximum number of blocks	        19	        17
	current total bytes		         0	         0
	maximum total bytes		   3205672	  22508616
	maximum total K-bytes		      3206	     22509
	maximum total M-bytes		         4	        23


                                     CITATION
                                     --------
                Please cite the following reference when publishing
                           results obtained with NWChem:

                 M. Valiev, E.J. Bylaska, N. Govind, K. Kowalski,
              T.P. Straatsma, H.J.J. van Dam, D. Wang, J. Nieplocha,
                        E. Apra, T.L. Windus, W.A. de Jong
                 "NWChem: a comprehensive and scalable open-source
                  solution for large scale molecular simulations"
                      Comput. Phys. Commun. 181, 1477 (2010)
                           doi:10.1016/j.cpc.2010.04.018

                                      AUTHORS
                                      -------
          E. Apra, E. J. Bylaska, W. A. de Jong, N. Govind, K. Kowalski,
       T. P. Straatsma, M. Valiev, H. J. J. van Dam, D. Wang, T. L. Windus,
        J. Hammond, J. Autschbach, K. Bhaskaran-Nair, J. Brabec, K. Lopata,
    S. A. Fischer, S. Krishnamoorthy, M. Jacquelin, W. Ma, M. Klemm, O. Villa,
      Y. Chen, V. Anisimov, F. Aquino, S. Hirata, M. T. Hackler, V. Konjkov,
      T. Risthaus, M. Malagoli, A. Marenich, A. Otero-de-la-Roza, J. Mullin,
        P. Nichols, R. Peverati, J. Pittner, Y. Zhao, P.-D. Fan, A. Fonari,
       M. Williamson, R. J. Harrison, J. R. Rehr, M. Dupuis, D. Silverstein,
    D. M. A. Smith, J. Nieplocha, V. Tipparaju, M. Krishnan, B. E. Van Kuiken,
        A. Vazquez-Mayagoitia, L. Jensen, M. Swart, Q. Wu, T. Van Voorhis,
     A. A. Auer, M. Nooijen, L. D. Crosby, E. Brown, G. Cisneros, G. I. Fann,
   H. Fruchtl, J. Garza, K. Hirao, R. A. Kendall, J. A. Nichols, K. Tsemekhman,
    K. Wolinski, J. Anchell, D. E. Bernholdt, P. Borowski, T. Clark, D. Clerc,
   H. Dachsel, M. J. O. Deegan, K. Dyall, D. Elwood, E. Glendening, M. Gutowski,
   A. C. Hess, J. Jaffe, B. G. Johnson, J. Ju, R. Kobayashi, R. Kutteh, Z. Lin,
   R. Littlefield, X. Long, B. Meng, T. Nakajima, S. Niu, L. Pollack, M. Rosing,
   K. Glaesemann, G. Sandrone, M. Stave, H. Taylor, G. Thomas, J. H. van Lenthe,
                               A. T. Wong, Z. Zhang.

 Total times  cpu:       31.3s     wall:       39.7s
